10197600
  -OEChem-03252401522D

  1  0  0     0  0  0  0  0  0999 V2000
    2.0000    0.0000    0.0000 F  -1  5  0  0  0  0  0  0  0  0  0  0
M  CHG  1   1  -1
M  ISO  1   1  18
M  END
> <PUBCHEM_COMPOUND_CID>
10197600

> <PUBCHEM_COMPOUND_CANONICALIZED>
1

> <PUBCHEM_CACTVS_COMPLEXITY>
0

> <PUBCHEM_CACTVS_HBOND_ACCEPTOR>
1

> <PUBCHEM_CACTVS_HBOND_DONOR>
0

> <PUBCHEM_CACTVS_ROTATABLE_BOND>
0

> <PUBCHEM_CACTVS_SUBSKEYS>
AAADcQAAAQAAAAAAAAAAAAAAAAAAAAAAAAAAAAAAAAAAAAAAAAAAAAAAAAAAAAAAAAAAAAAAAAAAAAAAAAAAAAAAAAAAAAAAAAAAAAAAAAAAAAAAAAAAAAAAAAAAAAAAAAAAAAAAAAAAAAAAAAAAAAAAAA==

> <PUBCHEM_IUPAC_OPENEYE_NAME>
fluorine-18(1-)

> <PUBCHEM_IUPAC_CAS_NAME>
fluorine-18(1-)

> <PUBCHEM_IUPAC_NAME_MARKUP>
fluorine-18(1-)

> <PUBCHEM_IUPAC_NAME>
fluorine-18(1-)

> <PUBCHEM_IUPAC_SYSTEMATIC_NAME>
fluorine-18(1-)

> <PUBCHEM_IUPAC_TRADITIONAL_NAME>
fluorine-18(1-)

> <PUBCHEM_IUPAC_INCHI>
InChI=1S/FH/h1H/p-1/i1-1

> <PUBCHEM_IUPAC_INCHIKEY>
KRHYYFGTRYWZRS-BJUDXGSMSA-M

> <PUBCHEM_XLOGP3_AA>
0.6

> <PUBCHEM_EXACT_MASS>
18.000937

> <PUBCHEM_MOLECULAR_FORMULA>
F-

> <PUBCHEM_MOLECULAR_WEIGHT>
18.000937

> <PUBCHEM_OPENEYE_CAN_SMILES>
[F-]

> <PUBCHEM_OPENEYE_ISO_SMILES>
[18F-]

> <PUBCHEM_CACTVS_TPSA>
0

> <PUBCHEM_MONOISOTOPIC_WEIGHT>
18.000937

> <PUBCHEM_TOTAL_CHARGE>
-1

> <PUBCHEM_HEAVY_ATOM_COUNT>
1

> <PUBCHEM_ATOM_DEF_STEREO_COUNT>
0

> <PUBCHEM_ATOM_UDEF_STEREO_COUNT>
0

> <PUBCHEM_BOND_DEF_STEREO_COUNT>
0

> <PUBCHEM_BOND_UDEF_STEREO_COUNT>
0

> <PUBCHEM_ISOTOPIC_ATOM_COUNT>
1

> <PUBCHEM_COMPONENT_COUNT>
1

> <PUBCHEM_CACTVS_TAUTO_COUNT>
-1

> <PUBCHEM_COORDINATE_TYPE>
1
5
255

$$$$
