107663
  -OEChem-03252401512D

  3  0  0     0  0  0  0  0  0999 V2000
    2.5369    0.1550    0.0000 Mg  0  2  0  0  0  0  0  0  0  0  0  0
    2.0000   -0.1550    0.0000 H   0  5  0  0  0  0  0  0  0  0  0  0
    3.0739   -0.1550    0.0000 H   0  5  0  0  0  0  0  0  0  0  0  0
M  CHG  3   1   2   2  -1   3  -1
M  END
> <PUBCHEM_COMPOUND_CID>
107663

> <PUBCHEM_COMPOUND_CANONICALIZED>
1

> <PUBCHEM_CACTVS_COMPLEXITY>
0

> <PUBCHEM_CACTVS_HBOND_ACCEPTOR>
2

> <PUBCHEM_CACTVS_HBOND_DONOR>
0

> <PUBCHEM_CACTVS_ROTATABLE_BOND>
0

> <PUBCHEM_CACTVS_SUBSKEYS>
AAADcQAAAAAAACAAAAAAAAAAAAAAAAAAAAAAAAAAAAAAAAAAAAAAAAAAAAAAAAAAAAAAAAAAAAAAAAAAAAAAAAAAAAAAAAAAAAAAAAAAAAAAAAAAAAAAAAAAAAAAAAAAAAAAAAAAAAAAAAAAAAAAAAAAAA==

> <PUBCHEM_IUPAC_OPENEYE_NAME>
magnesium;hydride

> <PUBCHEM_IUPAC_CAS_NAME>
magnesium;hydride

> <PUBCHEM_IUPAC_NAME_MARKUP>
magnesium;hydride

> <PUBCHEM_IUPAC_NAME>
magnesium;hydride

> <PUBCHEM_IUPAC_SYSTEMATIC_NAME>
magnesium;hydride

> <PUBCHEM_IUPAC_TRADITIONAL_NAME>
magnesium;hydride

> <PUBCHEM_IUPAC_INCHI>
InChI=1S/Mg.2H/q+2;2*-1

> <PUBCHEM_IUPAC_INCHIKEY>
RHLWKNJTVXDVHU-UHFFFAOYSA-N

> <PUBCHEM_EXACT_MASS>
26.0006918

> <PUBCHEM_MOLECULAR_FORMULA>
H2Mg

> <PUBCHEM_MOLECULAR_WEIGHT>
26.321

> <PUBCHEM_OPENEYE_CAN_SMILES>
[H-].[H-].[Mg+2]

> <PUBCHEM_OPENEYE_ISO_SMILES>
[H-].[H-].[Mg+2]

> <PUBCHEM_CACTVS_TPSA>
0

> <PUBCHEM_MONOISOTOPIC_WEIGHT>
26.0006918

> <PUBCHEM_TOTAL_CHARGE>
0

> <PUBCHEM_HEAVY_ATOM_COUNT>
1

> <PUBCHEM_ATOM_DEF_STEREO_COUNT>
0

> <PUBCHEM_ATOM_UDEF_STEREO_COUNT>
0

> <PUBCHEM_BOND_DEF_STEREO_COUNT>
0

> <PUBCHEM_BOND_UDEF_STEREO_COUNT>
0

> <PUBCHEM_ISOTOPIC_ATOM_COUNT>
0

> <PUBCHEM_COMPONENT_COUNT>
3

> <PUBCHEM_CACTVS_TAUTO_COUNT>
-1

> <PUBCHEM_NONSTANDARDBOND>
1  2  7
1  3  7

> <PUBCHEM_COORDINATE_TYPE>
1
5
255

$$$$
