135415564
  -OEChem-03252401472D

123128  0     1  0  0  0  0  0999 V2000
    3.6292   -1.8217    0.0000 O   0  0  0  0  0  0  0  0  0  0  0  0
    2.5842   -0.6081    0.0000 O   0  0  0  0  0  0  0  0  0  0  0  0
    3.3026    2.7504    0.0000 O   0  0  0  0  0  0  0  0  0  0  0  0
   10.0673   -3.1962    0.0000 O   0  0  0  0  0  0  0  0  0  0  0  0
    4.7117   -3.4776    0.0000 O   0  0  0  0  0  0  0  0  0  0  0  0
    8.1335   -3.7249    0.0000 O   0  0  0  0  0  0  0  0  0  0  0  0
   11.1431    1.3837    0.0000 O   0  0  0  0  0  0  0  0  0  0  0  0
   12.0473   -0.1132    0.0000 O   0  0  0  0  0  0  0  0  0  0  0  0
    7.6451   -2.1330    0.0000 O   0  0  0  0  0  0  0  0  0  0  0  0
    3.4159   -3.5406    0.0000 O   0  0  0  0  0  0  0  0  0  0  0  0
    9.5706    3.3773    0.0000 O   0  0  0  0  0  0  0  0  0  0  0  0
    5.0152    0.3837    0.0000 N   0  0  0  0  0  0  0  0  0  0  0  0
    7.5988   -0.4211    0.0000 N   0  0  0  0  0  0  0  0  0  0  0  0
    7.5988    1.1884    0.0000 N   0  0  0  0  0  0  0  0  0  0  0  0
    8.5877    1.9511    0.0000 N   0  0  0  0  0  0  0  0  0  0  0  0
    7.0152    0.3837    0.0000 C   0  0  0  0  0  0  0  0  0  0  0  0
    6.5152    1.2497    0.0000 C   0  0  0  0  0  0  0  0  0  0  0  0
    6.5152   -0.4824    0.0000 C   0  0  0  0  0  0  0  0  0  0  0  0
    5.5152    1.2497    0.0000 C   0  0  0  0  0  0  0  0  0  0  0  0
    5.5152   -0.4824    0.0000 C   0  0  0  0  0  0  0  0  0  0  0  0
    4.2876   -0.2947    0.0000 C   0  0  2  0  0  0  0  0  0  0  0  0
    3.3454    0.0404    0.0000 C   0  0  1  0  0  0  0  0  0  0  0  0
    4.4686   -1.2782    0.0000 C   0  0  1  0  0  0  0  0  0  0  0  0
    3.1645    1.0238    0.0000 C   0  0  1  0  0  0  0  0  0  0  0  0
    5.2920   -1.8457    0.0000 C   0  0  1  0  0  0  0  0  0  0  0  0
    4.0152    0.3837    0.0000 C   0  0  0  0  0  0  0  0  0  0  0  0
    8.5450   -0.1163    0.0000 C   0  0  0  0  0  0  0  0  0  0  0  0
    3.7320    1.8472    0.0000 C   0  0  2  0  0  0  0  0  0  0  0  0
    8.5450    0.8837    0.0000 C   0  0  0  0  0  0  0  0  0  0  0  0
    9.4110   -0.6163    0.0000 C   0  0  0  0  0  0  0  0  0  0  0  0
    3.6732    1.3234    0.0000 C   0  0  0  0  0  0  0  0  0  0  0  0
    4.4789    0.8393    0.0000 C   0  0  0  0  0  0  0  0  0  0  0  0
    5.4729   -2.8292    0.0000 C   0  0  2  0  0  0  0  0  0  0  0  0
    4.7288    1.7675    0.0000 C   0  0  1  0  0  0  0  0  0  0  0  0
    2.1740    0.8860    0.0000 C   0  0  0  0  0  0  0  0  0  0  0  0
    9.4110    1.3837    0.0000 C   0  0  0  0  0  0  0  0  0  0  0  0
   10.2771   -0.1163    0.0000 C   0  0  0  0  0  0  0  0  0  0  0  0
    9.3950   -1.6578    0.0000 C   0  0  0  0  0  0  0  0  0  0  0  0
    6.1313   -1.3021    0.0000 C   0  0  0  0  0  0  0  0  0  0  0  0
   10.2771    0.8837    0.0000 C   0  0  0  0  0  0  0  0  0  0  0  0
   10.2930   -2.1856    0.0000 C   0  0  0  0  0  0  0  0  0  0  0  0
    9.0366   -3.2956    0.0000 C   0  0  2  0  0  0  0  0  0  0  0  0
    8.6220   -2.3468    0.0000 C   0  0  0  0  0  0  0  0  0  0  0  0
    2.6884    1.4970    0.0000 C   0  0  0  0  0  0  0  0  0  0  0  0
    4.0152    2.2630    0.0000 C   0  0  0  0  0  0  0  0  0  0  0  0
   11.1871   -0.6232    0.0000 C   0  0  0  0  0  0  0  0  0  0  0  0
   11.1951   -1.6648    0.0000 C   0  0  0  0  0  0  0  0  0  0  0  0
    6.4151   -3.1642    0.0000 C   0  0  0  0  0  0  0  0  0  0  0  0
    5.2225    0.7289    0.0000 C   0  0  0  0  0  0  0  0  0  0  0  0
    5.2962    2.5909    0.0000 C   0  0  0  0  0  0  0  0  0  0  0  0
    9.3033   -4.2594    0.0000 C   0  0  0  0  0  0  0  0  0  0  0  0
    7.0636   -3.9254    0.0000 C   0  0  0  0  0  0  0  0  0  0  0  0
    3.0263   -2.6196    0.0000 C   0  0  0  0  0  0  0  0  0  0  0  0
   12.0630   -2.1614    0.0000 C   0  0  0  0  0  0  0  0  0  0  0  0
    6.2931    2.5111    0.0000 C   0  0  0  0  0  0  0  0  0  0  0  0
    8.6674    2.9480    0.0000 C   0  0  0  0  0  0  0  0  0  0  0  0
    4.8926   -4.4611    0.0000 C   0  0  0  0  0  0  0  0  0  0  0  0
    7.8440    3.5154    0.0000 C   0  0  0  0  0  0  0  0  0  0  0  0
    2.0340   -2.4964    0.0000 C   0  0  0  0  0  0  0  0  0  0  0  0
    6.8605    3.3345    0.0000 C   0  0  0  0  0  0  0  0  0  0  0  0
    8.0532    4.4933    0.0000 C   0  0  0  0  0  0  0  0  0  0  0  0
    7.0978    1.4617    0.0000 H   0  0  0  0  0  0  0  0  0  0  0  0
    6.4075    1.8603    0.0000 H   0  0  0  0  0  0  0  0  0  0  0  0
    6.4075   -1.0930    0.0000 H   0  0  0  0  0  0  0  0  0  0  0  0
    7.0978   -0.6944    0.0000 H   0  0  0  0  0  0  0  0  0  0  0  0
    5.6228    1.8603    0.0000 H   0  0  0  0  0  0  0  0  0  0  0  0
    4.9326    1.4617    0.0000 H   0  0  0  0  0  0  0  0  0  0  0  0
    4.9326   -0.6944    0.0000 H   0  0  0  0  0  0  0  0  0  0  0  0
    5.6228   -1.0930    0.0000 H   0  0  0  0  0  0  0  0  0  0  0  0
    4.9076   -0.2901    0.0000 H   0  0  0  0  0  0  0  0  0  0  0  0
    3.4576   -0.5694    0.0000 H   0  0  0  0  0  0  0  0  0  0  0  0
    3.8992   -1.0327    0.0000 H   0  0  0  0  0  0  0  0  0  0  0  0
    2.8389    1.5515    0.0000 H   0  0  0  0  0  0  0  0  0  0  0  0
    5.8613   -2.0911    0.0000 H   0  0  0  0  0  0  0  0  0  0  0  0
    3.4119    0.2407    0.0000 H   0  0  0  0  0  0  0  0  0  0  0  0
    4.0872   -0.2322    0.0000 H   0  0  0  0  0  0  0  0  0  0  0  0
    3.1139    1.8967    0.0000 H   0  0  0  0  0  0  0  0  0  0  0  0
    4.2932    1.3234    0.0000 H   0  0  0  0  0  0  0  0  0  0  0  0
    5.0903    0.7362    0.0000 H   0  0  0  0  0  0  0  0  0  0  0  0
    4.5820    1.4507    0.0000 H   0  0  0  0  0  0  0  0  0  0  0  0
    3.8676    0.9424    0.0000 H   0  0  0  0  0  0  0  0  0  0  0  0
    5.5851   -3.4389    0.0000 H   0  0  0  0  0  0  0  0  0  0  0  0
    4.3769    1.2570    0.0000 H   0  0  0  0  0  0  0  0  0  0  0  0
    2.0885    1.5001    0.0000 H   0  0  0  0  0  0  0  0  0  0  0  0
    1.5599    0.8005    0.0000 H   0  0  0  0  0  0  0  0  0  0  0  0
    2.2595    0.2719    0.0000 H   0  0  0  0  0  0  0  0  0  0  0  0
    6.4683   -1.8225    0.0000 H   0  0  0  0  0  0  0  0  0  0  0  0
    6.6518   -0.9651    0.0000 H   0  0  0  0  0  0  0  0  0  0  0  0
    5.7944   -0.7817    0.0000 H   0  0  0  0  0  0  0  0  0  0  0  0
    2.0000   -0.4004    0.0000 H   0  0  0  0  0  0  0  0  0  0  0  0
    2.7960    2.1076    0.0000 H   0  0  0  0  0  0  0  0  0  0  0  0
    2.0778    1.6047    0.0000 H   0  0  0  0  0  0  0  0  0  0  0  0
    2.5807    0.8864    0.0000 H   0  0  0  0  0  0  0  0  0  0  0  0
    4.5978    2.0510    0.0000 H   0  0  0  0  0  0  0  0  0  0  0  0
    4.2272    2.8456    0.0000 H   0  0  0  0  0  0  0  0  0  0  0  0
    3.4326    2.4751    0.0000 H   0  0  0  0  0  0  0  0  0  0  0  0
    6.7670   -2.6537    0.0000 H   0  0  0  0  0  0  0  0  0  0  0  0
    4.6626    0.4627    0.0000 H   0  0  0  0  0  0  0  0  0  0  0  0
    5.4887    0.1689    0.0000 H   0  0  0  0  0  0  0  0  0  0  0  0
    5.7824    0.9950    0.0000 H   0  0  0  0  0  0  0  0  0  0  0  0
    5.0301    3.1508    0.0000 H   0  0  0  0  0  0  0  0  0  0  0  0
    2.6846    2.7998    0.0000 H   0  0  0  0  0  0  0  0  0  0  0  0
    8.0277    1.6850    0.0000 H   0  0  0  0  0  0  0  0  0  0  0  0
    8.7058   -4.4247    0.0000 H   0  0  0  0  0  0  0  0  0  0  0  0
    9.4687   -4.8569    0.0000 H   0  0  0  0  0  0  0  0  0  0  0  0
    9.9009   -4.0940    0.0000 H   0  0  0  0  0  0  0  0  0  0  0  0
    6.8147   -4.4933    0.0000 H   0  0  0  0  0  0  0  0  0  0  0  0
   11.7551   -2.6996    0.0000 H   0  0  0  0  0  0  0  0  0  0  0  0
   12.6012   -2.4694    0.0000 H   0  0  0  0  0  0  0  0  0  0  0  0
   12.3710   -1.6233    0.0000 H   0  0  0  0  0  0  0  0  0  0  0  0
    6.5592    1.9512    0.0000 H   0  0  0  0  0  0  0  0  0  0  0  0
   11.1431    2.0037    0.0000 H   0  0  0  0  0  0  0  0  0  0  0  0
    4.2828   -4.5733    0.0000 H   0  0  0  0  0  0  0  0  0  0  0  0
    5.0048   -5.0709    0.0000 H   0  0  0  0  0  0  0  0  0  0  0  0
    5.5024   -4.3489    0.0000 H   0  0  0  0  0  0  0  0  0  0  0  0
   12.5877   -0.4170    0.0000 H   0  0  0  0  0  0  0  0  0  0  0  0
    2.1103   -1.8812    0.0000 H   0  0  0  0  0  0  0  0  0  0  0  0
    1.4187   -2.4201    0.0000 H   0  0  0  0  0  0  0  0  0  0  0  0
    1.9576   -3.1117    0.0000 H   0  0  0  0  0  0  0  0  0  0  0  0
    6.5236    3.8549    0.0000 H   0  0  0  0  0  0  0  0  0  0  0  0
    8.6595    4.3636    0.0000 H   0  0  0  0  0  0  0  0  0  0  0  0
    8.1829    5.0996    0.0000 H   0  0  0  0  0  0  0  0  0  0  0  0
    7.4469    4.6230    0.0000 H   0  0  0  0  0  0  0  0  0  0  0  0
 23  1  1  1  0  0  0
  1 53  1  0  0  0  0
 22  2  1  6  0  0  0
  2 90  1  0  0  0  0
 28  3  1  1  0  0  0
  3102  1  0  0  0  0
  4 41  1  0  0  0  0
  4 42  1  0  0  0  0
 33  5  1  6  0  0  0
  5 57  1  0  0  0  0
  6 42  1  0  0  0  0
  6 52  1  0  0  0  0
  7 40  1  0  0  0  0
  7112  1  0  0  0  0
  8 46  1  0  0  0  0
  8116  1  0  0  0  0
  9 43  2  0  0  0  0
 10 53  2  0  0  0  0
 11 56  2  0  0  0  0
 12 19  1  0  0  0  0
 12 20  1  0  0  0  0
 12 26  1  0  0  0  0
 13 16  1  0  0  0  0
 13 27  2  0  0  0  0
 14 16  1  0  0  0  0
 14 29  2  0  0  0  0
 15 36  1  0  0  0  0
 15 56  1  0  0  0  0
 15103  1  0  0  0  0
 16 17  1  0  0  0  0
 16 18  1  0  0  0  0
 17 19  1  0  0  0  0
 17 62  1  0  0  0  0
 17 63  1  0  0  0  0
 18 20  1  0  0  0  0
 18 64  1  0  0  0  0
 18 65  1  0  0  0  0
 19 66  1  0  0  0  0
 19 67  1  0  0  0  0
 20 68  1  0  0  0  0
 20 69  1  0  0  0  0
 21 22  1  0  0  0  0
 21 23  1  0  0  0  0
 21 32  1  1  0  0  0
 21 70  1  0  0  0  0
 22 24  1  0  0  0  0
 22 71  1  0  0  0  0
 23 25  1  0  0  0  0
 23 72  1  0  0  0  0
 24 28  1  0  0  0  0
 24 35  1  6  0  0  0
 24 73  1  0  0  0  0
 25 33  1  0  0  0  0
 25 39  1  6  0  0  0
 25 74  1  0  0  0  0
 26 31  1  0  0  0  0
 26 75  1  0  0  0  0
 26 76  1  0  0  0  0
 27 29  1  0  0  0  0
 27 30  1  0  0  0  0
 28 34  1  0  0  0  0
 28 77  1  0  0  0  0
 29 36  1  0  0  0  0
 30 37  2  0  0  0  0
 30 38  1  0  0  0  0
 31 44  1  0  0  0  0
 31 45  1  0  0  0  0
 31 78  1  0  0  0  0
 32 79  1  0  0  0  0
 32 80  1  0  0  0  0
 32 81  1  0  0  0  0
 33 48  1  0  0  0  0
 33 82  1  0  0  0  0
 34 49  1  6  0  0  0
 34 50  1  0  0  0  0
 34 83  1  0  0  0  0
 35 84  1  0  0  0  0
 35 85  1  0  0  0  0
 35 86  1  0  0  0  0
 36 40  2  0  0  0  0
 37 40  1  0  0  0  0
 37 46  1  0  0  0  0
 38 41  2  0  0  0  0
 38 43  1  0  0  0  0
 39 87  1  0  0  0  0
 39 88  1  0  0  0  0
 39 89  1  0  0  0  0
 41 47  1  0  0  0  0
 42 43  1  0  0  0  0
 42 51  1  1  0  0  0
 44 91  1  0  0  0  0
 44 92  1  0  0  0  0
 44 93  1  0  0  0  0
 45 94  1  0  0  0  0
 45 95  1  0  0  0  0
 45 96  1  0  0  0  0
 46 47  2  0  0  0  0
 47 54  1  0  0  0  0
 48 52  2  0  0  0  0
 48 97  1  0  0  0  0
 49 98  1  0  0  0  0
 49 99  1  0  0  0  0
 49100  1  0  0  0  0
 50 55  2  0  0  0  0
 50101  1  0  0  0  0
 51104  1  0  0  0  0
 51105  1  0  0  0  0
 51106  1  0  0  0  0
 52107  1  0  0  0  0
 53 59  1  0  0  0  0
 54108  1  0  0  0  0
 54109  1  0  0  0  0
 54110  1  0  0  0  0
 55 60  1  0  0  0  0
 55111  1  0  0  0  0
 56 58  1  0  0  0  0
 57113  1  0  0  0  0
 57114  1  0  0  0  0
 57115  1  0  0  0  0
 58 60  2  0  0  0  0
 58 61  1  0  0  0  0
 59117  1  0  0  0  0
 59118  1  0  0  0  0
 59119  1  0  0  0  0
 60120  1  0  0  0  0
 61121  1  0  0  0  0
 61122  1  0  0  0  0
 61123  1  0  0  0  0
M  END
> <PUBCHEM_COMPOUND_CID>
135415564

> <PUBCHEM_COMPOUND_CANONICALIZED>
1

> <PUBCHEM_CACTVS_COMPLEXITY>
1880

> <PUBCHEM_CACTVS_HBOND_ACCEPTOR>
14

> <PUBCHEM_CACTVS_HBOND_DONOR>
5

> <PUBCHEM_CACTVS_ROTATABLE_BOND>
5

> <PUBCHEM_CACTVS_SUBSKEYS>
AAADcfB/vAAAAAAAAAAAAAAAAAAAASIAAAA8QIAAAAAAAEABAAAAHgAQCAAADRzhmAYDDoPABgCoA6XyXAKCCAAkIAAIiAFsCNgcNzaG9R6meWCl5BWMuYfY7PzO4AADCAAYAADAAAYQADAAAAAAAAAAAA==

> <PUBCHEM_IUPAC_OPENEYE_NAME>
[(7S,9E,11S,12R,13S,14R,15R,16R,17S,18S,19E,21Z)-2,15,17,32-tetrahydroxy-1'-isobutyl-11-methoxy-3,7,12,14,16,18,22-heptamethyl-6,23-dioxo-spiro[8,33-dioxa-24,27,29-triazapentacyclo[23.6.1.14,7.05,31.026,30]tritriaconta-1(31),2,4,9,19,21,25(32),26,29-nonaene-28,4'-piperidine]-13-yl] acetate

> <PUBCHEM_IUPAC_CAS_NAME>
acetic acid [(7S,9E,11S,12R,13S,14R,15R,16R,17S,18S,19E,21Z)-2,15,17,32-tetrahydroxy-11-methoxy-3,7,12,14,16,18,22-heptamethyl-1'-(2-methylpropyl)-6,23-dioxo-13-spiro[8,33-dioxa-24,27,29-triazapentacyclo[23.6.1.14,7.05,31.026,30]tritriaconta-1(31),2,4,9,19,21,25(32),26,29-nonaene-28,4'-piperidine]yl] ester

> <PUBCHEM_IUPAC_NAME_MARKUP>
[(7<I>S</I>,9<I>E</I>,11<I>S</I>,12<I>R</I>,13<I>S</I>,14<I>R</I>,15<I>R</I>,16<I>R</I>,17<I>S</I>,18<I>S</I>,19<I>E</I>,21<I>Z</I>)-2,15,17,32-tetrahydroxy-11-methoxy-3,7,12,14,16,18,22-heptamethyl-1&apos;-(2-methylpropyl)-6,23-dioxospiro[8,33-dioxa-24,27,29-triazapentacyclo[23.6.1.1<SUP>4,7</SUP>.0<SUP>5,31</SUP>.0<SUP>26,30</SUP>]tritriaconta-1(31),2,4,9,19,21,25(32),26,29-nonaene-28,4&apos;-piperidine]-13-yl] acetate

> <PUBCHEM_IUPAC_NAME>
[(7S,9E,11S,12R,13S,14R,15R,16R,17S,18S,19E,21Z)-2,15,17,32-tetrahydroxy-11-methoxy-3,7,12,14,16,18,22-heptamethyl-1'-(2-methylpropyl)-6,23-dioxospiro[8,33-dioxa-24,27,29-triazapentacyclo[23.6.1.14,7.05,31.026,30]tritriaconta-1(31),2,4,9,19,21,25(32),26,29-nonaene-28,4'-piperidine]-13-yl] acetate

> <PUBCHEM_IUPAC_SYSTEMATIC_NAME>
[(7S,9E,11S,12R,13S,14R,15R,16R,17S,18S,19E,21Z)-11-methoxy-3,7,12,14,16,18,22-heptamethyl-1'-(2-methylpropyl)-2,15,17,32-tetrakis(oxidanyl)-6,23-bis(oxidanylidene)spiro[8,33-dioxa-24,27,29-triazapentacyclo[23.6.1.14,7.05,31.026,30]tritriaconta-1(31),2,4,9,19,21,25(32),26,29-nonaene-28,4'-piperidine]-13-yl] ethanoate

> <PUBCHEM_IUPAC_TRADITIONAL_NAME>
acetic acid [(7S,9E,11S,12R,13S,14R,15R,16R,17S,18S,19E,21Z)-2,15,17,32-tetrahydroxy-1'-isobutyl-6,23-diketo-11-methoxy-3,7,12,14,16,18,22-heptamethyl-spiro[8,33-dioxa-24,27,29-triazapentacyclo[23.6.1.14,7.05,31.026,30]tritriaconta-1(31),2,4,9,19,21,25(32),26,29-nonaene-28,4'-piperidine]-13-yl] ester

> <PUBCHEM_IUPAC_INCHI>
InChI=1S/C46H62N4O11/c1-22(2)21-50-18-16-46(17-19-50)48-34-31-32-39(54)28(8)42-33(31)43(56)45(10,61-42)59-20-15-30(58-11)25(5)41(60-29(9)51)27(7)38(53)26(6)37(52)23(3)13-12-14-24(4)44(57)47-36(40(32)55)35(34)49-46/h12-15,20,22-23,25-27,30,37-38,41,52-55H,16-19,21H2,1-11H3,(H,47,57)/b13-12+,20-15+,24-14-/t23-,25+,26+,27+,30-,37-,38+,41+,45-/m0/s1

> <PUBCHEM_IUPAC_INCHIKEY>
AZFBLLCNOQPJGJ-VXTBVIBXSA-N

> <PUBCHEM_XLOGP3_AA>
5.6

> <PUBCHEM_EXACT_MASS>
846.44150881

> <PUBCHEM_MOLECULAR_FORMULA>
C46H62N4O11

> <PUBCHEM_MOLECULAR_WEIGHT>
847.0

> <PUBCHEM_OPENEYE_CAN_SMILES>
CC1C=CC=C(C(=O)NC2=C(C3=C(C4=C(C(=C3O)C)OC(C4=O)(OC=CC(C(C(C(C(C(C1O)C)O)C)OC(=O)C)C)OC)C)C5=NC6(CCN(CC6)CC(C)C)N=C25)O)C

> <PUBCHEM_OPENEYE_ISO_SMILES>
C[C@H]1/C=C/C=C(\C(=O)NC2=C(C3=C(C4=C(C(=C3O)C)O[C@@](C4=O)(O/C=C/[C@@H]([C@H]([C@H]([C@@H]([C@@H]([C@@H]([C@H]1O)C)O)C)OC(=O)C)C)OC)C)C5=NC6(CCN(CC6)CC(C)C)N=C25)O)/C

> <PUBCHEM_CACTVS_TPSA>
209

> <PUBCHEM_MONOISOTOPIC_WEIGHT>
846.44150881

> <PUBCHEM_TOTAL_CHARGE>
0

> <PUBCHEM_HEAVY_ATOM_COUNT>
61

> <PUBCHEM_ATOM_DEF_STEREO_COUNT>
9

> <PUBCHEM_ATOM_UDEF_STEREO_COUNT>
0

> <PUBCHEM_BOND_DEF_STEREO_COUNT>
3

> <PUBCHEM_BOND_UDEF_STEREO_COUNT>
0

> <PUBCHEM_ISOTOPIC_ATOM_COUNT>
0

> <PUBCHEM_COMPONENT_COUNT>
1

> <PUBCHEM_CACTVS_TAUTO_COUNT>
-1

> <PUBCHEM_COORDINATE_TYPE>
1
5
255

> <PUBCHEM_BONDANNOTATIONS>
23  1  5
22  2  6
21  32  5
24  35  6
25  39  6
27  29  8
27  30  8
29  36  8
28  3  5
30  37  8
30  38  8
34  49  6
36  40  8
37  40  8
37  46  8
38  41  8
41  47  8
42  51  5
46  47  8
33  5  6

$$$$
