168322896
  -OEChem-03252401432D

181186  0     1  0  0  0  0  0999 V2000
   14.8142    8.9467    0.0000 Co  0  1  0  0  0  0  0  0  0  0  0  0
    5.7014   -3.5677    0.0000 P   0  0  3  0  0  0  0  0  0  0  0  0
   12.7119    3.3116    0.0000 O   0  0  0  0  0  0  0  0  0  0  0  0
   11.4815    2.9828    0.0000 O   0  0  0  0  0  0  0  0  0  0  0  0
    8.8330   -0.2221    0.0000 O   0  0  0  0  0  0  0  0  0  0  0  0
   14.1015    8.2452    0.0000 O   0  5  0  0  0  0  0  0  0  0  0  0
   11.1780    9.5386    0.0000 O   0  0  0  0  0  0  0  0  0  0  0  0
    6.7087   10.9291    0.0000 O   0  5  0  0  0  0  0  0  0  0  0  0
    3.6618    3.3173    0.0000 O   0  5  0  0  0  0  0  0  0  0  0  0
    6.5104   -2.9800    0.0000 O   0  0  0  0  0  0  0  0  0  0  0  0
    4.8924   -4.1555    0.0000 O   0  0  0  0  0  0  0  0  0  0  0  0
    6.2892   -4.3768    0.0000 O   0  0  0  0  0  0  0  0  0  0  0  0
    5.1136   -2.7587    0.0000 O   0  0  0  0  0  0  0  0  0  0  0  0
    4.6605   -6.7327    0.0000 O   0  0  0  0  0  0  0  0  0  0  0  0
    6.7765   -5.2433    0.0000 O   0  0  0  0  0  0  0  0  0  0  0  0
    2.6064   -6.3544    0.0000 O   0  0  0  0  0  0  0  0  0  0  0  0
   10.4680    5.6209    0.0000 N   0  0  0  0  0  0  0  0  0  0  0  0
    9.0066    4.2882    0.0000 N   0  0  0  0  0  0  0  0  0  0  0  0
    8.9740    6.9536    0.0000 N   0  0  0  0  0  0  0  0  0  0  0  0
    7.5434    5.6209    0.0000 N   0  0  0  0  0  0  0  0  0  0  0  0
   14.3182    3.9597    0.0000 N   0  0  0  0  0  0  0  0  0  0  0  0
   11.6731    1.2614    0.0000 N   0  0  0  0  0  0  0  0  0  0  0  0
    7.1104   -0.4031    0.0000 N   0  0  0  0  0  0  0  0  0  0  0  0
   12.8864    9.4795    0.0000 N   0  0  0  0  0  0  0  0  0  0  0  0
   10.2897   11.0255    0.0000 N   0  0  0  0  0  0  0  0  0  0  0  0
    5.3136    9.9025    0.0000 N   0  0  0  0  0  0  0  0  0  0  0  0
    2.6131    4.6958    0.0000 N   0  0  0  0  0  0  0  0  0  0  0  0
    6.3241   -7.3714    0.0000 N   0  3  0  0  0  0  0  0  0  0  0  0
    7.7193   -8.1737    0.0000 N   0  0  0  0  0  0  0  0  0  0  0  0
   16.7419    8.4139    0.0000 N   0  0  0  0  0  0  0  0  0  0  0  0
   11.0529    4.9056    0.0000 C   0  0  2  0  0  0  0  0  0  0  0  0
   11.9636    5.1663    0.0000 C   0  0  2  0  0  0  0  0  0  0  0  0
    9.7869    3.7032    0.0000 C   0  0  3  0  0  0  0  0  0  0  0  0
    9.4937    2.7615    0.0000 C   0  0  1  0  0  0  0  0  0  0  0  0
   11.9636    6.1406    0.0000 C   0  0  1  0  0  0  0  0  0  0  0  0
    8.5194    2.7615    0.0000 C   0  0  2  0  0  0  0  0  0  0  0  0
   11.0203    6.4013    0.0000 C   0  0  0  0  0  0  0  0  0  0  0  0
   12.9538    5.0267    0.0000 C   0  0  0  0  0  0  0  0  0  0  0  0
    8.2261    3.6706    0.0000 C   0  0  0  0  0  0  0  0  0  0  0  0
   11.5491    4.0374    0.0000 C   0  0  0  0  0  0  0  0  0  0  0  0
   12.1368    4.1814    0.0000 C   0  0  0  0  0  0  0  0  0  0  0  0
   12.6763    6.8421    0.0000 C   0  0  0  0  0  0  0  0  0  0  0  0
   10.0865    1.9561    0.0000 C   0  0  0  0  0  0  0  0  0  0  0  0
    8.6239    1.7669    0.0000 C   0  0  0  0  0  0  0  0  0  0  0  0
    7.6059    2.3547    0.0000 C   0  0  0  0  0  0  0  0  0  0  0  0
   10.7287    7.3104    0.0000 C   0  0  0  0  0  0  0  0  0  0  0  0
    7.2844    3.9639    0.0000 C   0  0  0  0  0  0  0  0  0  0  0  0
    9.4611    8.5128    0.0000 C   0  0  2  0  0  0  0  0  0  0  0  0
    9.7869    7.6037    0.0000 C   0  0  0  0  0  0  0  0  0  0  0  0
   12.4250    7.8100    0.0000 C   0  0  0  0  0  0  0  0  0  0  0  0
   13.3280    4.0993    0.0000 C   0  0  0  0  0  0  0  0  0  0  0  0
    7.8149    1.1792    0.0000 C   0  0  0  0  0  0  0  0  0  0  0  0
    8.4868    8.5128    0.0000 C   0  0  2  0  0  0  0  0  0  0  0  0
    6.9912    4.8730    0.0000 C   0  0  0  0  0  0  0  0  0  0  0  0
    6.0494    5.1337    0.0000 C   0  0  2  0  0  0  0  0  0  0  0  0
   11.0804    2.0668    0.0000 C   0  0  0  0  0  0  0  0  0  0  0  0
    6.0494    6.1080    0.0000 C   0  0  0  0  0  0  0  0  0  0  0  0
    8.1935    7.5711    0.0000 C   0  0  0  0  0  0  0  0  0  0  0  0
   11.4636    7.9886    0.0000 C   0  0  0  0  0  0  0  0  0  0  0  0
    6.6137    3.2222    0.0000 C   0  0  0  0  0  0  0  0  0  0  0  0
    6.9912    6.3687    0.0000 C   0  0  0  0  0  0  0  0  0  0  0  0
    9.4462    9.5127    0.0000 C   0  0  0  0  0  0  0  0  0  0  0  0
   10.4075    8.8360    0.0000 C   0  0  0  0  0  0  0  0  0  0  0  0
    7.8941    9.3183    0.0000 C   0  0  0  0  0  0  0  0  0  0  0  0
    7.2519    7.3104    0.0000 C   0  0  0  0  0  0  0  0  0  0  0  0
    5.2536    4.5283    0.0000 C   0  0  0  0  0  0  0  0  0  0  0  0
    7.9194    0.1846    0.0000 C   0  0  0  0  0  0  0  0  0  0  0  0
   13.1377    8.5116    0.0000 C   0  0  0  0  0  0  0  0  0  0  0  0
    5.0497    6.1300    0.0000 C   0  0  0  0  0  0  0  0  0  0  0  0
    5.7614    7.0656    0.0000 C   0  0  0  0  0  0  0  0  0  0  0  0
    6.9002    9.2076    0.0000 C   0  0  0  0  0  0  0  0  0  0  0  0
   10.3046   10.0256    0.0000 C   0  0  0  0  0  0  0  0  0  0  0  0
    4.3313    4.9148    0.0000 C   0  0  0  0  0  0  0  0  0  0  0  0
    7.2149   -1.3977    0.0000 C   0  0  0  0  0  0  0  0  0  0  0  0
    6.3075   10.0131    0.0000 C   0  0  0  0  0  0  0  0  0  0  0  0
    3.5354    4.3093    0.0000 C   0  0  0  0  0  0  0  0  0  0  0  0
    6.4059   -1.9854    0.0000 C   0  0  1  0  0  0  0  0  0  0  0  0
    5.4924   -1.5787    0.0000 C   0  0  0  0  0  0  0  0  0  0  0  0
    4.9969   -5.1500    0.0000 C   0  0  1  0  0  0  0  0  0  0  0  0
    5.8629   -5.6500    0.0000 C   0  0  2  0  0  0  0  0  0  0  0  0
    4.2537   -5.8192    0.0000 C   0  0  1  0  0  0  0  0  0  0  0  0
    5.6550   -6.6282    0.0000 C   0  0  2  0  0  0  0  0  0  0  0  0
    3.2756   -5.6112    0.0000 C   0  0  0  0  0  0  0  0  0  0  0  0
    6.1166   -8.3435    0.0000 C   0  0  0  0  0  0  0  0  0  0  0  0
    7.3126   -7.2666    0.0000 C   0  0  0  0  0  0  0  0  0  0  0  0
    6.9835   -8.8420    0.0000 C   0  0  0  0  0  0  0  0  0  0  0  0
    5.2514   -8.8450    0.0000 C   0  0  0  0  0  0  0  0  0  0  0  0
    6.9852   -9.8420    0.0000 C   0  0  0  0  0  0  0  0  0  0  0  0
    5.2531   -9.8450    0.0000 C   0  0  0  0  0  0  0  0  0  0  0  0
    6.1200  -10.3435    0.0000 C   0  0  0  0  0  0  0  0  0  0  0  0
    4.3880  -10.3465    0.0000 C   0  0  0  0  0  0  0  0  0  0  0  0
    6.1217  -11.3435    0.0000 C   0  0  0  0  0  0  0  0  0  0  0  0
   15.7780    8.6803    0.0000 C   0  5  0  0  0  0  0  0  0  0  0  0
   10.3134    3.3757    0.0000 H   0  0  0  0  0  0  0  0  0  0  0  0
    9.2140    2.2082    0.0000 H   0  0  0  0  0  0  0  0  0  0  0  0
   12.5355    5.9011    0.0000 H   0  0  0  0  0  0  0  0  0  0  0  0
   13.5603    5.1553    0.0000 H   0  0  0  0  0  0  0  0  0  0  0  0
   12.9325    5.6463    0.0000 H   0  0  0  0  0  0  0  0  0  0  0  0
   11.0109    3.7298    0.0000 H   0  0  0  0  0  0  0  0  0  0  0  0
   11.8568    3.4991    0.0000 H   0  0  0  0  0  0  0  0  0  0  0  0
   12.0874    4.3451    0.0000 H   0  0  0  0  0  0  0  0  0  0  0  0
   11.5262    4.0741    0.0000 H   0  0  0  0  0  0  0  0  0  0  0  0
   12.2442    3.5708    0.0000 H   0  0  0  0  0  0  0  0  0  0  0  0
   12.7474    4.2888    0.0000 H   0  0  0  0  0  0  0  0  0  0  0  0
   13.0279    6.3315    0.0000 H   0  0  0  0  0  0  0  0  0  0  0  0
   13.2402    7.0997    0.0000 H   0  0  0  0  0  0  0  0  0  0  0  0
    9.5310    1.6809    0.0000 H   0  0  0  0  0  0  0  0  0  0  0  0
   10.2611    1.3612    0.0000 H   0  0  0  0  0  0  0  0  0  0  0  0
    8.8957    1.2097    0.0000 H   0  0  0  0  0  0  0  0  0  0  0  0
    9.2199    1.9378    0.0000 H   0  0  0  0  0  0  0  0  0  0  0  0
    7.3537    2.9211    0.0000 H   0  0  0  0  0  0  0  0  0  0  0  0
    7.0395    2.1026    0.0000 H   0  0  0  0  0  0  0  0  0  0  0  0
    7.8580    1.7883    0.0000 H   0  0  0  0  0  0  0  0  0  0  0  0
   12.0734    8.3207    0.0000 H   0  0  0  0  0  0  0  0  0  0  0  0
   11.8611    7.5524    0.0000 H   0  0  0  0  0  0  0  0  0  0  0  0
    7.5431    1.7364    0.0000 H   0  0  0  0  0  0  0  0  0  0  0  0
    7.2189    1.0083    0.0000 H   0  0  0  0  0  0  0  0  0  0  0  0
    7.8754    8.4102    0.0000 H   0  0  0  0  0  0  0  0  0  0  0  0
    6.1666    4.5249    0.0000 H   0  0  0  0  0  0  0  0  0  0  0  0
   11.8840    7.5330    0.0000 H   0  0  0  0  0  0  0  0  0  0  0  0
   11.9192    8.4091    0.0000 H   0  0  0  0  0  0  0  0  0  0  0  0
   11.0431    8.4442    0.0000 H   0  0  0  0  0  0  0  0  0  0  0  0
    8.9756    6.3336    0.0000 H   0  0  0  0  0  0  0  0  0  0  0  0
    6.1538    3.6380    0.0000 H   0  0  0  0  0  0  0  0  0  0  0  0
    6.1978    2.7623    0.0000 H   0  0  0  0  0  0  0  0  0  0  0  0
    7.0735    2.8063    0.0000 H   0  0  0  0  0  0  0  0  0  0  0  0
    9.2254   10.0921    0.0000 H   0  0  0  0  0  0  0  0  0  0  0  0
    8.8373    9.3959    0.0000 H   0  0  0  0  0  0  0  0  0  0  0  0
   10.6079    8.2493    0.0000 H   0  0  0  0  0  0  0  0  0  0  0  0
   10.9942    9.0364    0.0000 H   0  0  0  0  0  0  0  0  0  0  0  0
   10.2071    9.4228    0.0000 H   0  0  0  0  0  0  0  0  0  0  0  0
    8.4497    9.5934    0.0000 H   0  0  0  0  0  0  0  0  0  0  0  0
    7.7196    9.9132    0.0000 H   0  0  0  0  0  0  0  0  0  0  0  0
    6.8135    7.7488    0.0000 H   0  0  0  0  0  0  0  0  0  0  0  0
    4.9183    4.0067    0.0000 H   0  0  0  0  0  0  0  0  0  0  0  0
    5.7089    4.1075    0.0000 H   0  0  0  0  0  0  0  0  0  0  0  0
   14.7001    4.4481    0.0000 H   0  0  0  0  0  0  0  0  0  0  0  0
   14.5502    3.3847    0.0000 H   0  0  0  0  0  0  0  0  0  0  0  0
    5.0633    6.7499    0.0000 H   0  0  0  0  0  0  0  0  0  0  0  0
    4.4298    6.1437    0.0000 H   0  0  0  0  0  0  0  0  0  0  0  0
    5.0360    5.5102    0.0000 H   0  0  0  0  0  0  0  0  0  0  0  0
    6.3552    7.2442    0.0000 H   0  0  0  0  0  0  0  0  0  0  0  0
    5.5829    7.6593    0.0000 H   0  0  0  0  0  0  0  0  0  0  0  0
    5.1677    6.8871    0.0000 H   0  0  0  0  0  0  0  0  0  0  0  0
   11.4245    0.6935    0.0000 H   0  0  0  0  0  0  0  0  0  0  0  0
   12.2893    1.3300    0.0000 H   0  0  0  0  0  0  0  0  0  0  0  0
    6.3446    8.9325    0.0000 H   0  0  0  0  0  0  0  0  0  0  0  0
    7.0748    8.6127    0.0000 H   0  0  0  0  0  0  0  0  0  0  0  0
    4.6666    5.4363    0.0000 H   0  0  0  0  0  0  0  0  0  0  0  0
    3.8759    5.3355    0.0000 H   0  0  0  0  0  0  0  0  0  0  0  0
    6.5440   -0.1510    0.0000 H   0  0  0  0  0  0  0  0  0  0  0  0
   13.3283    9.9144    0.0000 H   0  0  0  0  0  0  0  0  0  0  0  0
    7.4867   -1.9549    0.0000 H   0  0  0  0  0  0  0  0  0  0  0  0
    7.8109   -1.2268    0.0000 H   0  0  0  0  0  0  0  0  0  0  0  0
   10.8219   11.3435    0.0000 H   0  0  0  0  0  0  0  0  0  0  0  0
    9.7482   11.3274    0.0000 H   0  0  0  0  0  0  0  0  0  0  0  0
    5.9043   -2.3499    0.0000 H   0  0  0  0  0  0  0  0  0  0  0  0
    4.9462   10.4018    0.0000 H   0  0  0  0  0  0  0  0  0  0  0  0
    2.1197    4.3204    0.0000 H   0  0  0  0  0  0  0  0  0  0  0  0
    5.7445   -1.0123    0.0000 H   0  0  0  0  0  0  0  0  0  0  0  0
    4.9260   -1.3265    0.0000 H   0  0  0  0  0  0  0  0  0  0  0  0
    5.2402   -2.1451    0.0000 H   0  0  0  0  0  0  0  0  0  0  0  0
    4.4181   -4.9278    0.0000 H   0  0  0  0  0  0  0  0  0  0  0  0
    6.3447   -6.0402    0.0000 H   0  0  0  0  0  0  0  0  0  0  0  0
    3.8636   -6.3010    0.0000 H   0  0  0  0  0  0  0  0  0  0  0  0
    6.9058   -4.3120    0.0000 H   0  0  0  0  0  0  0  0  0  0  0  0
    5.4328   -7.2070    0.0000 H   0  0  0  0  0  0  0  0  0  0  0  0
    3.5078   -5.0364    0.0000 H   0  0  0  0  0  0  0  0  0  0  0  0
    2.7498   -5.2827    0.0000 H   0  0  0  0  0  0  0  0  0  0  0  0
    7.2780   -5.6078    0.0000 H   0  0  0  0  0  0  0  0  0  0  0  0
    7.6217   -6.7291    0.0000 H   0  0  0  0  0  0  0  0  0  0  0  0
    8.3262   -8.3005    0.0000 H   0  0  0  0  0  0  0  0  0  0  0  0
    2.0000   -6.2255    0.0000 H   0  0  0  0  0  0  0  0  0  0  0  0
    4.7139   -8.5359    0.0000 H   0  0  0  0  0  0  0  0  0  0  0  0
    7.5226  -10.1511    0.0000 H   0  0  0  0  0  0  0  0  0  0  0  0
    4.0770   -9.8101    0.0000 H   0  0  0  0  0  0  0  0  0  0  0  0
    3.8516  -10.6574    0.0000 H   0  0  0  0  0  0  0  0  0  0  0  0
    4.6989  -10.8829    0.0000 H   0  0  0  0  0  0  0  0  0  0  0  0
    5.5017  -11.3446    0.0000 H   0  0  0  0  0  0  0  0  0  0  0  0
    6.1228  -11.9635    0.0000 H   0  0  0  0  0  0  0  0  0  0  0  0
    6.7417  -11.3425    0.0000 H   0  0  0  0  0  0  0  0  0  0  0  0
  2 10  1  0  0  0  0
  2 11  1  0  0  0  0
  2 12  1  0  0  0  0
  2 13  2  0  0  0  0
  3 51  2  0  0  0  0
  4 56  2  0  0  0  0
  5 67  2  0  0  0  0
  6 68  1  0  0  0  0
  7 72  2  0  0  0  0
  8 75  1  0  0  0  0
  9 76  1  0  0  0  0
 77 10  1  6  0  0  0
 79 11  1  1  0  0  0
 12166  1  0  0  0  0
 14 81  1  0  0  0  0
 14 82  1  0  0  0  0
 80 15  1  1  0  0  0
 15170  1  0  0  0  0
 16 83  1  0  0  0  0
 16173  1  0  0  0  0
 17 31  1  0  0  0  0
 17 37  2  0  0  0  0
 18 33  1  0  0  0  0
 18 39  2  0  0  0  0
 19 49  1  0  0  0  0
 19 58  1  0  0  0  0
 19123  1  0  0  0  0
 20 54  1  0  0  0  0
 20 61  2  0  0  0  0
 21 51  1  0  0  0  0
 21137  1  0  0  0  0
 21138  1  0  0  0  0
 22 56  1  0  0  0  0
 22145  1  0  0  0  0
 22146  1  0  0  0  0
 23 67  1  0  0  0  0
 23 74  1  0  0  0  0
 23151  1  0  0  0  0
 24 68  2  0  0  0  0
 24152  1  0  0  0  0
 25 72  1  0  0  0  0
 25155  1  0  0  0  0
 25156  1  0  0  0  0
 26 75  2  0  0  0  0
 26158  1  0  0  0  0
 27 76  2  0  0  0  0
 27159  1  0  0  0  0
 82 28  1  1  0  0  0
 28 84  1  0  0  0  0
 28 85  2  0  0  0  0
 29 85  1  0  0  0  0
 29 86  1  0  0  0  0
 29172  1  0  0  0  0
 30 93  3  0  0  0  0
 31 32  1  0  0  0  0
 31 33  1  0  0  0  0
 31 40  1  1  0  0  0
 32 35  1  0  0  0  0
 32 38  1  0  0  0  0
 32 41  1  1  0  0  0
 33 34  1  0  0  0  0
 33 94  1  0  0  0  0
 34 36  1  0  0  0  0
 34 43  1  6  0  0  0
 34 95  1  0  0  0  0
 35 37  1  0  0  0  0
 35 42  1  1  0  0  0
 35 96  1  0  0  0  0
 36 39  1  0  0  0  0
 36 44  1  0  0  0  0
 36 45  1  6  0  0  0
 37 46  1  0  0  0  0
 38 51  1  0  0  0  0
 38 97  1  0  0  0  0
 38 98  1  0  0  0  0
 39 47  1  0  0  0  0
 40 99  1  0  0  0  0
 40100  1  0  0  0  0
 40101  1  0  0  0  0
 41102  1  0  0  0  0
 41103  1  0  0  0  0
 41104  1  0  0  0  0
 42 50  1  0  0  0  0
 42105  1  0  0  0  0
 42106  1  0  0  0  0
 43 56  1  0  0  0  0
 43107  1  0  0  0  0
 43108  1  0  0  0  0
 44 52  1  0  0  0  0
 44109  1  0  0  0  0
 44110  1  0  0  0  0
 45111  1  0  0  0  0
 45112  1  0  0  0  0
 45113  1  0  0  0  0
 46 49  2  3  0  0  0
 46 59  1  0  0  0  0
 47 54  2  3  0  0  0
 47 60  1  0  0  0  0
 48 49  1  0  0  0  0
 48 53  1  0  0  0  0
 48 62  1  0  0  0  0
 48 63  1  1  0  0  0
 50 68  1  0  0  0  0
 50114  1  0  0  0  0
 50115  1  0  0  0  0
 52 67  1  0  0  0  0
 52116  1  0  0  0  0
 52117  1  0  0  0  0
 53 58  1  0  0  0  0
 53 64  1  6  0  0  0
 53118  1  0  0  0  0
 54 55  1  0  0  0  0
 55 57  1  0  0  0  0
 55 66  1  1  0  0  0
 55119  1  0  0  0  0
 57 61  1  0  0  0  0
 57 69  1  0  0  0  0
 57 70  1  0  0  0  0
 58 65  2  3  0  0  0
 59120  1  0  0  0  0
 59121  1  0  0  0  0
 59122  1  0  0  0  0
 60124  1  0  0  0  0
 60125  1  0  0  0  0
 60126  1  0  0  0  0
 61 65  1  0  0  0  0
 62 72  1  0  0  0  0
 62127  1  0  0  0  0
 62128  1  0  0  0  0
 63129  1  0  0  0  0
 63130  1  0  0  0  0
 63131  1  0  0  0  0
 64 71  1  0  0  0  0
 64132  1  0  0  0  0
 64133  1  0  0  0  0
 65134  1  0  0  0  0
 66 73  1  0  0  0  0
 66135  1  0  0  0  0
 66136  1  0  0  0  0
 69139  1  0  0  0  0
 69140  1  0  0  0  0
 69141  1  0  0  0  0
 70142  1  0  0  0  0
 70143  1  0  0  0  0
 70144  1  0  0  0  0
 71 75  1  0  0  0  0
 71147  1  0  0  0  0
 71148  1  0  0  0  0
 73 76  1  0  0  0  0
 73149  1  0  0  0  0
 73150  1  0  0  0  0
 74 77  1  0  0  0  0
 74153  1  0  0  0  0
 74154  1  0  0  0  0
 77 78  1  0  0  0  0
 77157  1  0  0  0  0
 78160  1  0  0  0  0
 78161  1  0  0  0  0
 78162  1  0  0  0  0
 79 80  1  0  0  0  0
 79 81  1  0  0  0  0
 79163  1  0  0  0  0
 80 82  1  0  0  0  0
 80164  1  0  0  0  0
 81 83  1  6  0  0  0
 81165  1  0  0  0  0
 82167  1  0  0  0  0
 83168  1  0  0  0  0
 83169  1  0  0  0  0
 84 86  2  0  0  0  0
 84 87  1  0  0  0  0
 85171  1  0  0  0  0
 86 88  1  0  0  0  0
 87 89  2  0  0  0  0
 87174  1  0  0  0  0
 88 90  2  0  0  0  0
 88175  1  0  0  0  0
 89 90  1  0  0  0  0
 89 91  1  0  0  0  0
 90 92  1  0  0  0  0
 91176  1  0  0  0  0
 91177  1  0  0  0  0
 91178  1  0  0  0  0
 92179  1  0  0  0  0
 92180  1  0  0  0  0
 92181  1  0  0  0  0
M  CHG  6   1   3   6  -1   8  -1   9  -1  28   1  93  -1
M  END
> <PUBCHEM_COMPOUND_CID>
168322896

> <PUBCHEM_COMPOUND_CANONICALIZED>
1

> <PUBCHEM_CACTVS_COMPLEXITY>
3160

> <PUBCHEM_CACTVS_HBOND_ACCEPTOR>
23

> <PUBCHEM_CACTVS_HBOND_DONOR>
12

> <PUBCHEM_CACTVS_ROTATABLE_BOND>
26

> <PUBCHEM_CACTVS_SUBSKEYS>
AAADcfB//AIAAAAQAAAAAAAAAAAAAWLEiBAwAAAAAAAAAFgB8AAAHgAQCCAAD7zhngY30LfNlxC4QyVzdICCgC2xEqAB2aE4dJiLeLLAmZGeYAhvlgLbyCf8+fKfiAAAQAAQACAQAACAACAAQAAAAAAAAA==

> <PUBCHEM_IUPAC_OPENEYE_NAME>
cobaltic;3-[(1R,2S,3S,7S,8R,13S,17R,18R)-2,7,18-tris(2-amino-2-oxo-ethyl)-17-[3-[[(2R)-2-[[(2R,3S,4R,5S)-5-(5,6-dimethyl-3H-benzimidazol-1-ium-1-yl)-4-hydroxy-2-(hydroxymethyl)tetrahydrofuran-3-yl]oxy-hydroxy-phosphoryl]oxypropyl]amino]-3-oxo-propyl]-3,13-bis(3-imino-3-oxido-propyl)-1,2,5,7,12,12,15,17-octamethyl-3,8,13,18,19,22-hexahydrocorrin-8-yl]propanimidate;cyanide

> <PUBCHEM_IUPAC_CAS_NAME>
cobalt(3+);3-[(1R,2S,3S,7S,8R,13S,17R,18R)-2,7,18-tris(2-amino-2-oxoethyl)-17-[3-[[(2R)-2-[[(2R,3S,4R,5S)-5-(5,6-dimethyl-3H-benzimidazol-1-ium-1-yl)-4-hydroxy-2-(hydroxymethyl)-3-oxolanyl]oxy-hydroxyphosphoryl]oxypropyl]amino]-3-oxopropyl]-3,13-bis(3-imino-3-oxidopropyl)-1,2,5,7,12,12,15,17-octamethyl-3,8,13,18,19,22-hexahydrocorrin-8-yl]propanimidate;cyanide

> <PUBCHEM_IUPAC_NAME_MARKUP>
cobalt(3+);3-[(1<I>R</I>,2<I>S</I>,3<I>S</I>,7<I>S</I>,8<I>R</I>,13<I>S</I>,17<I>R</I>,18<I>R</I>)-2,7,18-tris(2-amino-2-oxoethyl)-17-[3-[[(2<I>R</I>)-2-[[(2<I>R</I>,3<I>S</I>,4<I>R</I>,5<I>S</I>)-5-(5,6-dimethyl-3<I>H</I>-benzimidazol-1-ium-1-yl)-4-hydroxy-2-(hydroxymethyl)oxolan-3-yl]oxy-hydroxyphosphoryl]oxypropyl]amino]-3-oxopropyl]-3,13-bis(3-imino-3-oxidopropyl)-1,2,5,7,12,12,15,17-octamethyl-3,8,13,18,19,22-hexahydrocorrin-8-yl]propanimidate;cyanide

> <PUBCHEM_IUPAC_NAME>
cobalt(3+);3-[(1R,2S,3S,7S,8R,13S,17R,18R)-2,7,18-tris(2-amino-2-oxoethyl)-17-[3-[[(2R)-2-[[(2R,3S,4R,5S)-5-(5,6-dimethyl-3H-benzimidazol-1-ium-1-yl)-4-hydroxy-2-(hydroxymethyl)oxolan-3-yl]oxy-hydroxyphosphoryl]oxypropyl]amino]-3-oxopropyl]-3,13-bis(3-imino-3-oxidopropyl)-1,2,5,7,12,12,15,17-octamethyl-3,8,13,18,19,22-hexahydrocorrin-8-yl]propanimidate;cyanide

> <PUBCHEM_IUPAC_SYSTEMATIC_NAME>
3-[(1R,2S,3S,7S,8R,13S,17R,18R)-3,13-bis(3-azanylidene-3-oxidanidyl-propyl)-2,7,18-tris(2-azanyl-2-oxidanylidene-ethyl)-17-[3-[[(2R)-2-[[(2R,3S,4R,5S)-5-(5,6-dimethyl-3H-benzimidazol-1-ium-1-yl)-2-(hydroxymethyl)-4-oxidanyl-oxolan-3-yl]oxy-oxidanyl-phosphoryl]oxypropyl]amino]-3-oxidanylidene-propyl]-1,2,5,7,12,12,15,17-octamethyl-3,8,13,18,19,22-hexahydrocorrin-8-yl]propanimidate;cobalt(3+);cyanide

> <PUBCHEM_IUPAC_TRADITIONAL_NAME>
cobaltic;3-[(1R,2S,3S,7S,8R,13S,17R,18R)-2,7,18-tris(2-amino-2-keto-ethyl)-17-[3-[[(2R)-2-[[(2R,3S,4R,5S)-5-(5,6-dimethyl-3H-benzimidazol-1-ium-1-yl)-4-hydroxy-2-methylol-tetrahydrofuran-3-yl]oxy-hydroxy-phosphoryl]oxypropyl]amino]-3-keto-propyl]-3,13-bis(3-imino-3-oxido-propyl)-1,2,5,7,12,12,15,17-octamethyl-3,8,13,18,19,22-hexahydrocorrin-8-yl]propionimidate;cyanide

> <PUBCHEM_IUPAC_INCHI>
InChI=1S/C62H90N13O14P.CN.Co/c1-29-20-39-40(21-30(29)2)75(28-70-39)57-52(84)53(41(27-76)87-57)89-90(85,86)88-31(3)26-69-49(83)18-19-59(8)37(22-46(66)80)56-62(11)61(10,25-48(68)82)36(14-17-45(65)79)51(74-62)33(5)55-60(9,24-47(67)81)34(12-15-43(63)77)38(71-55)23-42-58(6,7)35(13-16-44(64)78)50(72-42)32(4)54(59)73-56;1-2;/h20-21,23,28,31,34-37,41,52-53,56-57,76,84H,12-19,22,24-27H2,1-11H3,(H15,63,64,65,66,67,68,69,71,72,73,74,77,78,79,80,81,82,83,85,86);;/q;-1;+3/p-2/t31-,34+,35-,36-,37+,41-,52-,53-,56?,57+,59-,60+,61+,62+;;/m1../s1

> <PUBCHEM_IUPAC_INCHIKEY>
FDJOLVPMNUYSCM-KYGGNWNPSA-L

> <PUBCHEM_EXACT_MASS>
1354.567399

> <PUBCHEM_MOLECULAR_FORMULA>
C63H88CoN14O14P

> <PUBCHEM_MOLECULAR_WEIGHT>
1355.4

> <PUBCHEM_OPENEYE_CAN_SMILES>
CC1=CC2=C(C=C1C)[N+](=CN2)C3C(C(C(O3)CO)OP(=O)(O)OC(C)CNC(=O)CCC4(C(C5C6(C(C(C(=N6)C(=C7C(C(C(=CC8=NC(=C(C4=N5)C)C(C8(C)C)CCC(=N)[O-])N7)CCC(=N)[O-])(C)CC(=O)N)C)CCC(=N)[O-])(C)CC(=O)N)C)CC(=O)N)C)O.[C-]#N.[Co+3]

> <PUBCHEM_OPENEYE_ISO_SMILES>
CC1=CC2=C(C=C1C)[N+](=CN2)[C@@H]3[C@@H]([C@@H]([C@H](O3)CO)OP(=O)(O)O[C@H](C)CNC(=O)CC[C@@]4([C@H](C5[C@]6([C@@]([C@@H](C(=N6)C(=C7[C@@]([C@H](C(=CC8=NC(=C(C4=N5)C)[C@H](C8(C)C)CCC(=N)[O-])N7)CCC(=N)[O-])(C)CC(=O)N)C)CCC(=N)[O-])(C)CC(=O)N)C)CC(=O)N)C)O.[C-]#N.[Co+3]

> <PUBCHEM_CACTVS_TPSA>
497

> <PUBCHEM_MONOISOTOPIC_WEIGHT>
1354.567399

> <PUBCHEM_TOTAL_CHARGE>
0

> <PUBCHEM_HEAVY_ATOM_COUNT>
93

> <PUBCHEM_ATOM_DEF_STEREO_COUNT>
13

> <PUBCHEM_ATOM_UDEF_STEREO_COUNT>
1

> <PUBCHEM_BOND_DEF_STEREO_COUNT>
0

> <PUBCHEM_BOND_UDEF_STEREO_COUNT>
3

> <PUBCHEM_ISOTOPIC_ATOM_COUNT>
0

> <PUBCHEM_COMPONENT_COUNT>
3

> <PUBCHEM_CACTVS_TAUTO_COUNT>
-1

> <PUBCHEM_COORDINATE_TYPE>
1
5
255

> <PUBCHEM_BONDANNOTATIONS>
77  10  6
79  11  5
80  15  5
33  18  3
82  28  5
28  84  8
28  85  8
29  85  8
29  86  8
31  40  5
32  41  5
34  43  6
35  42  5
36  45  6
46  49  1
47  54  1
48  63  5
53  64  6
55  66  5
58  65  1
81  83  6
84  86  8
84  87  8
86  88  8
87  89  8
88  90  8
89  90  8

$$$$
