168924
  -OEChem-03252401512D

 14  9  0     0  0  0  0  0  0999 V2000
    3.7071    2.0096    0.0000 La  0  1  0  0  0  0  0  0  0  0  0  0
    4.6037   -1.3365    0.0000 La  0  1  0  0  0  0  0  0  0  0  0  0
    3.7071    3.0096    0.0000 O   0  5  0  0  0  0  0  0  0  0  0  0
    2.7071    2.0096    0.0000 O   0  5  0  0  0  0  0  0  0  0  0  0
    4.4142    1.3024    0.0000 O   0  5  0  0  0  0  0  0  0  0  0  0
    4.8625   -0.3706    0.0000 O   0  5  0  0  0  0  0  0  0  0  0  0
    5.3108   -2.0436    0.0000 O   0  5  0  0  0  0  0  0  0  0  0  0
    3.6378   -1.5953    0.0000 O   0  5  0  0  0  0  0  0  0  0  0  0
    2.0000    3.7167    0.0000 O   0  0  0  0  0  0  0  0  0  0  0  0
    3.1895    0.0777    0.0000 O   0  0  0  0  0  0  0  0  0  0  0  0
    5.7591   -3.7167    0.0000 O   0  0  0  0  0  0  0  0  0  0  0  0
    2.7071    3.0096    0.0000 C   0  0  0  0  0  0  0  0  0  0  0  0
    4.1554    0.3365    0.0000 C   0  0  0  0  0  0  0  0  0  0  0  0
    5.0520   -3.0096    0.0000 C   0  0  0  0  0  0  0  0  0  0  0  0
  3 12  1  0  0  0  0
  4 12  1  0  0  0  0
  5 13  1  0  0  0  0
  6 13  1  0  0  0  0
  7 14  1  0  0  0  0
  8 14  1  0  0  0  0
  9 12  2  0  0  0  0
 10 13  2  0  0  0  0
 11 14  2  0  0  0  0
M  CHG  8   1   3   2   3   3  -1   4  -1   5  -1   6  -1   7  -1   8  -1
M  END
> <PUBCHEM_COMPOUND_CID>
168924

> <PUBCHEM_COMPOUND_CANONICALIZED>
1

> <PUBCHEM_CACTVS_COMPLEXITY>
18.8

> <PUBCHEM_CACTVS_HBOND_ACCEPTOR>
9

> <PUBCHEM_CACTVS_HBOND_DONOR>
0

> <PUBCHEM_CACTVS_ROTATABLE_BOND>
0

> <PUBCHEM_CACTVS_SUBSKEYS>
AAADcQBAPAAAAAAAAAAAABAAAAAAAAAAAAAAAAAAAAAAAAAAAAAAAgAAAAAAAAAAAAAACAAAAAAIAAAACAAAAAAAAAAAAAAAAAAAAAAAAAAAAAAAAAAAAAAAAAAAAAAAAAAAAAAAAAAAAAAAAAAAAAAAAA==

> <PUBCHEM_IUPAC_OPENEYE_NAME>
lanthanum(3+);tricarbonate

> <PUBCHEM_IUPAC_CAS_NAME>
lanthanum(3+);tricarbonate

> <PUBCHEM_IUPAC_NAME_MARKUP>
lanthanum(3+);tricarbonate

> <PUBCHEM_IUPAC_NAME>
lanthanum(3+);tricarbonate

> <PUBCHEM_IUPAC_SYSTEMATIC_NAME>
lanthanum(3+);tricarbonate

> <PUBCHEM_IUPAC_TRADITIONAL_NAME>
lanthanum(3+);tricarbonate

> <PUBCHEM_IUPAC_INCHI>
InChI=1S/3CH2O3.2La/c3*2-1(3)4;;/h3*(H2,2,3,4);;/q;;;2*+3/p-6

> <PUBCHEM_IUPAC_INCHIKEY>
NZPIUJUFIFZSPW-UHFFFAOYSA-H

> <PUBCHEM_EXACT_MASS>
457.76696

> <PUBCHEM_MOLECULAR_FORMULA>
C3La2O9

> <PUBCHEM_MOLECULAR_WEIGHT>
457.84

> <PUBCHEM_OPENEYE_CAN_SMILES>
C(=O)([O-])[O-].C(=O)([O-])[O-].C(=O)([O-])[O-].[La+3].[La+3]

> <PUBCHEM_OPENEYE_ISO_SMILES>
C(=O)([O-])[O-].C(=O)([O-])[O-].C(=O)([O-])[O-].[La+3].[La+3]

> <PUBCHEM_CACTVS_TPSA>
190

> <PUBCHEM_MONOISOTOPIC_WEIGHT>
457.76696

> <PUBCHEM_TOTAL_CHARGE>
0

> <PUBCHEM_HEAVY_ATOM_COUNT>
14

> <PUBCHEM_ATOM_DEF_STEREO_COUNT>
0

> <PUBCHEM_ATOM_UDEF_STEREO_COUNT>
0

> <PUBCHEM_BOND_DEF_STEREO_COUNT>
0

> <PUBCHEM_BOND_UDEF_STEREO_COUNT>
0

> <PUBCHEM_ISOTOPIC_ATOM_COUNT>
0

> <PUBCHEM_COMPONENT_COUNT>
5

> <PUBCHEM_CACTVS_TAUTO_COUNT>
-1

> <PUBCHEM_COORDINATE_TYPE>
1
5
255

$$$$
