2826718
  -OEChem-03252401482D

165168  0     1  0  0  0  0  0999 V2000
    4.4610    3.6899    0.0000 O   0  0  0  0  0  0  0  0  0  0  0  0
   12.2113    6.0986    0.0000 O   0  0  0  0  0  0  0  0  0  0  0  0
    5.4745    7.6922    0.0000 O   0  0  0  0  0  0  0  0  0  0  0  0
    7.5742    5.0669    0.0000 O   0  0  0  0  0  0  0  0  0  0  0  0
    8.1036    8.5318    0.0000 O   0  0  0  0  0  0  0  0  0  0  0  0
   10.5134    3.1578    0.0000 O   0  0  0  0  0  0  0  0  0  0  0  0
   12.3087    3.0269    0.0000 O   0  0  0  0  0  0  0  0  0  0  0  0
    6.4493    1.1868    0.0000 O   0  0  0  0  0  0  0  0  0  0  0  0
   10.6321    5.8313    0.0000 O   0  0  0  0  0  0  0  0  0  0  0  0
   12.5830    0.7683    0.0000 O   0  0  0  0  0  0  0  0  0  0  0  0
    6.9152    5.6577    0.0000 O   0  0  0  0  0  0  0  0  0  0  0  0
    9.1473    7.5237    0.0000 O   0  0  0  0  0  0  0  0  0  0  0  0
   10.3130    2.2220    0.0000 O   0  0  0  0  0  0  0  0  0  0  0  0
    9.3471   -0.4863    0.0000 O   0  0  0  0  0  0  0  0  0  0  0  0
   12.2185    9.7218    0.0000 O   0  0  0  0  0  0  0  0  0  0  0  0
    5.5833    6.0328    0.0000 N   0  0  0  0  0  0  0  0  0  0  0  0
   11.3794    3.6577    0.0000 N   0  0  0  0  0  0  0  0  0  0  0  0
    6.7081    3.5669    0.0000 N   0  0  0  0  0  0  0  0  0  0  0  0
    8.7813    4.1577    0.0000 N   0  0  0  0  0  0  0  0  0  0  0  0
    7.9152    6.6577    0.0000 N   0  0  0  0  0  0  0  0  0  0  0  0
   10.0542    1.2561    0.0000 N   0  0  0  0  0  0  0  0  0  0  0  0
    5.1350    2.3599    0.0000 N   0  0  0  0  0  0  0  0  0  0  0  0
    8.1224    0.7385    0.0000 N   0  0  0  0  0  0  0  0  0  0  0  0
    5.7236   10.3581    0.0000 N   0  0  0  0  0  0  0  0  0  0  0  0
    2.5369    2.8598    0.0000 N   0  0  0  0  0  0  0  0  0  0  0  0
    5.8421    5.0669    0.0000 C   0  0  1  0  0  0  0  0  0  0  0  0
    5.0070    4.5276    0.0000 C   0  0  2  0  0  0  0  0  0  0  0  0
   10.5133    4.1577    0.0000 C   0  0  1  0  0  0  0  0  0  0  0  0
    4.2350    5.1539    0.0000 C   0  0  0  0  0  0  0  0  0  0  0  0
    4.5904    6.0823    0.0000 C   0  0  0  0  0  0  0  0  0  0  0  0
   10.7225    5.1295    0.0000 C   0  0  0  0  0  0  0  0  0  0  0  0
   11.7113    5.2325    0.0000 C   0  0  2  0  0  0  0  0  0  0  0  0
   12.1164    4.3247    0.0000 C   0  0  0  0  0  0  0  0  0  0  0  0
    7.0492    7.1577    0.0000 C   0  0  2  0  0  0  0  0  0  0  0  0
    6.0833    6.8988    0.0000 C   0  0  0  0  0  0  0  0  0  0  0  0
    6.7081    4.5669    0.0000 C   0  0  0  0  0  0  0  0  0  0  0  0
    9.6473    3.6577    0.0000 C   0  0  0  0  0  0  0  0  0  0  0  0
   11.3794    2.6577    0.0000 C   0  0  0  0  0  0  0  0  0  0  0  0
   11.0201    1.5149    0.0000 C   0  0  2  0  0  0  0  0  0  0  0  0
    7.1798    8.1491    0.0000 C   0  0  1  0  0  0  0  0  0  0  0  0
    8.7813    5.1577    0.0000 C   0  0  1  0  0  0  0  0  0  0  0  0
    6.0010    2.8598    0.0000 C   0  0  2  0  0  0  0  0  0  0  0  0
    6.7081    2.1527    0.0000 C   0  0  1  0  0  0  0  0  0  0  0  0
    7.6741    2.4115    0.0000 C   0  0  0  0  0  0  0  0  0  0  0  0
    9.6473    5.6577    0.0000 C   0  0  1  0  0  0  0  0  0  0  0  0
    7.9152    5.6577    0.0000 C   0  0  0  0  0  0  0  0  0  0  0  0
    8.3812    1.7044    0.0000 C   0  0  1  0  0  0  0  0  0  0  0  0
   11.5860    0.6904    0.0000 C   0  0  1  0  0  0  0  0  0  0  0  0
    6.3864    8.7579    0.0000 C   0  0  0  0  0  0  0  0  0  0  0  0
    9.3471    1.9632    0.0000 C   0  0  0  0  0  0  0  0  0  0  0  0
    9.6473    6.6577    0.0000 C   0  0  2  0  0  0  0  0  0  0  0  0
    6.5169    9.7493    0.0000 C   0  0  0  0  0  0  0  0  0  0  0  0
    5.8809   -7.6267    0.0000 C   0  0  3  0  0  0  0  0  0  0  0  0
   11.1550   -0.2119    0.0000 C   0  0  0  0  0  0  0  0  0  0  0  0
    4.2690    2.8598    0.0000 C   0  0  0  0  0  0  0  0  0  0  0  0
    6.1397   -8.5926    0.0000 C   0  0  0  0  0  0  0  0  0  0  0  0
    6.5880   -6.9196    0.0000 C   0  0  0  0  0  0  0  0  0  0  0  0
    5.4326   -9.2997    0.0000 C   0  0  3  0  0  0  0  0  0  0  0  0
    6.3292   -5.9537    0.0000 C   0  0  0  0  0  0  0  0  0  0  0  0
   10.2901    7.4237    0.0000 C   0  0  0  0  0  0  0  0  0  0  0  0
    7.0363   -5.2466    0.0000 C   0  0  0  0  0  0  0  0  0  0  0  0
    8.3812   -0.2275    0.0000 C   0  0  0  0  0  0  0  0  0  0  0  0
    6.7775   -4.2806    0.0000 C   0  0  0  0  0  0  0  0  0  0  0  0
    7.6741   -0.9346    0.0000 C   0  0  0  0  0  0  0  0  0  0  0  0
    7.4846   -3.5735    0.0000 C   0  0  0  0  0  0  0  0  0  0  0  0
    4.9150   -7.3679    0.0000 C   0  0  0  0  0  0  0  0  0  0  0  0
    3.4030    2.3598    0.0000 C   0  0  0  0  0  0  0  0  0  0  0  0
    5.6914  -10.2657    0.0000 C   0  0  0  0  0  0  0  0  0  0  0  0
    7.9329   -1.9005    0.0000 C   0  0  0  0  0  0  0  0  0  0  0  0
    7.2258   -2.6076    0.0000 C   0  0  0  0  0  0  0  0  0  0  0  0
    4.4667   -9.0409    0.0000 C   0  0  0  0  0  0  0  0  0  0  0  0
    9.9481    8.3634    0.0000 C   0  0  0  0  0  0  0  0  0  0  0  0
   11.2749    7.2500    0.0000 C   0  0  0  0  0  0  0  0  0  0  0  0
    4.9843  -10.9728    0.0000 C   0  0  0  0  0  0  0  0  0  0  0  0
   10.5909    9.1294    0.0000 C   0  0  0  0  0  0  0  0  0  0  0  0
   11.9177    8.0161    0.0000 C   0  0  0  0  0  0  0  0  0  0  0  0
   11.5757    8.9558    0.0000 C   0  0  0  0  0  0  0  0  0  0  0  0
    5.8633    4.2172    0.0000 H   0  0  0  0  0  0  0  0  0  0  0  0
    5.4445    4.0883    0.0000 H   0  0  0  0  0  0  0  0  0  0  0  0
    9.8263    4.6582    0.0000 H   0  0  0  0  0  0  0  0  0  0  0  0
    3.6825    5.4352    0.0000 H   0  0  0  0  0  0  0  0  0  0  0  0
    3.8972    4.6340    0.0000 H   0  0  0  0  0  0  0  0  0  0  0  0
    4.6862    6.6948    0.0000 H   0  0  0  0  0  0  0  0  0  0  0  0
    3.9914    6.2419    0.0000 H   0  0  0  0  0  0  0  0  0  0  0  0
   10.7234    5.7495    0.0000 H   0  0  0  0  0  0  0  0  0  0  0  0
   10.1061    5.1955    0.0000 H   0  0  0  0  0  0  0  0  0  0  0  0
   11.3738    5.7526    0.0000 H   0  0  0  0  0  0  0  0  0  0  0  0
   12.4818    3.8239    0.0000 H   0  0  0  0  0  0  0  0  0  0  0  0
   12.6529    4.6355    0.0000 H   0  0  0  0  0  0  0  0  0  0  0  0
    7.8116    7.5336    0.0000 H   0  0  0  0  0  0  0  0  0  0  0  0
   10.7257    0.7175    0.0000 H   0  0  0  0  0  0  0  0  0  0  0  0
    7.6716    7.7717    0.0000 H   0  0  0  0  0  0  0  0  0  0  0  0
    9.5174    4.7327    0.0000 H   0  0  0  0  0  0  0  0  0  0  0  0
    5.6236    3.3517    0.0000 H   0  0  0  0  0  0  0  0  0  0  0  0
    7.2810    3.3296    0.0000 H   0  0  0  0  0  0  0  0  0  0  0  0
    7.1466    1.7143    0.0000 H   0  0  0  0  0  0  0  0  0  0  0  0
    8.2443    3.8477    0.0000 H   0  0  0  0  0  0  0  0  0  0  0  0
    8.2253    7.1946    0.0000 H   0  0  0  0  0  0  0  0  0  0  0  0
    8.1819    2.7671    0.0000 H   0  0  0  0  0  0  0  0  0  0  0  0
    7.4120    2.9734    0.0000 H   0  0  0  0  0  0  0  0  0  0  0  0
    3.8419    3.7234    0.0000 H   0  0  0  0  0  0  0  0  0  0  0  0
    9.8593    5.0750    0.0000 H   0  0  0  0  0  0  0  0  0  0  0  0
    8.8196    1.2660    0.0000 H   0  0  0  0  0  0  0  0  0  0  0  0
   11.8533    1.2499    0.0000 H   0  0  0  0  0  0  0  0  0  0  0  0
    5.7951    8.9443    0.0000 H   0  0  0  0  0  0  0  0  0  0  0  0
    6.1001    8.2079    0.0000 H   0  0  0  0  0  0  0  0  0  0  0  0
    9.8937    0.6572    0.0000 H   0  0  0  0  0  0  0  0  0  0  0  0
   12.8313    6.0986    0.0000 H   0  0  0  0  0  0  0  0  0  0  0  0
    5.1350    1.7398    0.0000 H   0  0  0  0  0  0  0  0  0  0  0  0
    9.0484    6.4972    0.0000 H   0  0  0  0  0  0  0  0  0  0  0  0
    7.1082    9.5629    0.0000 H   0  0  0  0  0  0  0  0  0  0  0  0
    6.8032   10.2993    0.0000 H   0  0  0  0  0  0  0  0  0  0  0  0
    5.7204   -7.0278    0.0000 H   0  0  0  0  0  0  0  0  0  0  0  0
    7.5235    0.5780    0.0000 H   0  0  0  0  0  0  0  0  0  0  0  0
   10.5955    0.0554    0.0000 H   0  0  0  0  0  0  0  0  0  0  0  0
   10.8877   -0.7713    0.0000 H   0  0  0  0  0  0  0  0  0  0  0  0
   11.7144   -0.4791    0.0000 H   0  0  0  0  0  0  0  0  0  0  0  0
    8.1846    9.1465    0.0000 H   0  0  0  0  0  0  0  0  0  0  0  0
    4.6675    3.3347    0.0000 H   0  0  0  0  0  0  0  0  0  0  0  0
    3.8704    3.3347    0.0000 H   0  0  0  0  0  0  0  0  0  0  0  0
    6.4954   -9.1005    0.0000 H   0  0  0  0  0  0  0  0  0  0  0  0
    6.7016   -8.3306    0.0000 H   0  0  0  0  0  0  0  0  0  0  0  0
    6.9436   -7.4275    0.0000 H   0  0  0  0  0  0  0  0  0  0  0  0
    7.1499   -6.6576    0.0000 H   0  0  0  0  0  0  0  0  0  0  0  0
    5.8505    1.0263    0.0000 H   0  0  0  0  0  0  0  0  0  0  0  0
    5.2722   -8.7009    0.0000 H   0  0  0  0  0  0  0  0  0  0  0  0
    5.9736   -5.4458    0.0000 H   0  0  0  0  0  0  0  0  0  0  0  0
    5.7673   -6.2157    0.0000 H   0  0  0  0  0  0  0  0  0  0  0  0
   11.0306    6.3062    0.0000 H   0  0  0  0  0  0  0  0  0  0  0  0
    7.3919   -5.7544    0.0000 H   0  0  0  0  0  0  0  0  0  0  0  0
    7.5982   -4.9845    0.0000 H   0  0  0  0  0  0  0  0  0  0  0  0
   12.9339    0.2571    0.0000 H   0  0  0  0  0  0  0  0  0  0  0  0
    6.4219   -3.7728    0.0000 H   0  0  0  0  0  0  0  0  0  0  0  0
    6.2156   -4.5427    0.0000 H   0  0  0  0  0  0  0  0  0  0  0  0
    7.3184   -0.4267    0.0000 H   0  0  0  0  0  0  0  0  0  0  0  0
    7.1122   -1.1966    0.0000 H   0  0  0  0  0  0  0  0  0  0  0  0
    5.0755   -6.7690    0.0000 H   0  0  0  0  0  0  0  0  0  0  0  0
    4.3161   -7.2074    0.0000 H   0  0  0  0  0  0  0  0  0  0  0  0
    4.7545   -7.9668    0.0000 H   0  0  0  0  0  0  0  0  0  0  0  0
    7.8402   -4.0814    0.0000 H   0  0  0  0  0  0  0  0  0  0  0  0
    8.0465   -3.3115    0.0000 H   0  0  0  0  0  0  0  0  0  0  0  0
    3.0044    1.8848    0.0000 H   0  0  0  0  0  0  0  0  0  0  0  0
    3.8015    1.8848    0.0000 H   0  0  0  0  0  0  0  0  0  0  0  0
    6.0471  -10.7735    0.0000 H   0  0  0  0  0  0  0  0  0  0  0  0
    6.2534  -10.0036    0.0000 H   0  0  0  0  0  0  0  0  0  0  0  0
    8.2885   -2.4084    0.0000 H   0  0  0  0  0  0  0  0  0  0  0  0
    8.4948   -1.6385    0.0000 H   0  0  0  0  0  0  0  0  0  0  0  0
    6.8702   -2.0997    0.0000 H   0  0  0  0  0  0  0  0  0  0  0  0
    6.6639   -2.8696    0.0000 H   0  0  0  0  0  0  0  0  0  0  0  0
    9.1473    8.1437    0.0000 H   0  0  0  0  0  0  0  0  0  0  0  0
    4.6272   -8.4420    0.0000 H   0  0  0  0  0  0  0  0  0  0  0  0
    3.8678   -8.8804    0.0000 H   0  0  0  0  0  0  0  0  0  0  0  0
    4.3062   -9.6398    0.0000 H   0  0  0  0  0  0  0  0  0  0  0  0
    5.8045   10.9728    0.0000 H   0  0  0  0  0  0  0  0  0  0  0  0
    5.1508   10.1208    0.0000 H   0  0  0  0  0  0  0  0  0  0  0  0
    9.3375    8.4711    0.0000 H   0  0  0  0  0  0  0  0  0  0  0  0
   11.4869    6.6674    0.0000 H   0  0  0  0  0  0  0  0  0  0  0  0
    4.5459  -10.5344    0.0000 H   0  0  0  0  0  0  0  0  0  0  0  0
    4.5459  -11.4112    0.0000 H   0  0  0  0  0  0  0  0  0  0  0  0
    5.4228  -11.4112    0.0000 H   0  0  0  0  0  0  0  0  0  0  0  0
    2.0000    2.5498    0.0000 H   0  0  0  0  0  0  0  0  0  0  0  0
    2.5369    3.4798    0.0000 H   0  0  0  0  0  0  0  0  0  0  0  0
   10.3788    9.7120    0.0000 H   0  0  0  0  0  0  0  0  0  0  0  0
   12.5283    7.9084    0.0000 H   0  0  0  0  0  0  0  0  0  0  0  0
   12.0064   10.3044    0.0000 H   0  0  0  0  0  0  0  0  0  0  0  0
 27  1  1  1  0  0  0
  1101  1  0  0  0  0
 32  2  1  1  0  0  0
  2108  1  0  0  0  0
  3 35  2  0  0  0  0
  4 36  2  0  0  0  0
 40  5  1  1  0  0  0
  5118  1  0  0  0  0
  6 37  2  0  0  0  0
  7 38  2  0  0  0  0
 43  8  1  1  0  0  0
  8125  1  0  0  0  0
 45  9  1  1  0  0  0
  9129  1  0  0  0  0
 48 10  1  6  0  0  0
 10132  1  0  0  0  0
 11 46  2  0  0  0  0
 51 12  1  1  0  0  0
 12150  1  0  0  0  0
 13 50  2  0  0  0  0
 14 62  2  0  0  0  0
 15 77  1  0  0  0  0
 15165  1  0  0  0  0
 16 26  1  0  0  0  0
 16 30  1  0  0  0  0
 16 35  1  0  0  0  0
 17 28  1  0  0  0  0
 17 33  1  0  0  0  0
 17 38  1  0  0  0  0
 18 36  1  0  0  0  0
 18 42  1  0  0  0  0
 18 95  1  0  0  0  0
 19 37  1  0  0  0  0
 19 41  1  0  0  0  0
 19 97  1  0  0  0  0
 20 34  1  0  0  0  0
 20 46  1  0  0  0  0
 20 98  1  0  0  0  0
 21 39  1  0  0  0  0
 21 50  1  0  0  0  0
 21107  1  0  0  0  0
 42 22  1  1  0  0  0
 22 55  1  0  0  0  0
 22109  1  0  0  0  0
 47 23  1  1  0  0  0
 23 62  1  0  0  0  0
 23114  1  0  0  0  0
 24 52  1  0  0  0  0
 24154  1  0  0  0  0
 24155  1  0  0  0  0
 25 67  1  0  0  0  0
 25161  1  0  0  0  0
 25162  1  0  0  0  0
 26 27  1  0  0  0  0
 26 36  1  0  0  0  0
 26 78  1  1  0  0  0
 27 29  1  0  0  0  0
 27 79  1  0  0  0  0
 28 31  1  0  0  0  0
 28 37  1  0  0  0  0
 28 80  1  1  0  0  0
 29 30  1  0  0  0  0
 29 81  1  0  0  0  0
 29 82  1  0  0  0  0
 30 83  1  0  0  0  0
 30 84  1  0  0  0  0
 31 32  1  0  0  0  0
 31 85  1  0  0  0  0
 31 86  1  0  0  0  0
 32 33  1  0  0  0  0
 32 87  1  0  0  0  0
 33 88  1  0  0  0  0
 33 89  1  0  0  0  0
 34 35  1  0  0  0  0
 34 40  1  0  0  0  0
 34 90  1  1  0  0  0
 38 39  1  0  0  0  0
 39 48  1  0  0  0  0
 39 91  1  1  0  0  0
 40 49  1  0  0  0  0
 40 92  1  0  0  0  0
 41 45  1  0  0  0  0
 41 46  1  0  0  0  0
 41 93  1  1  0  0  0
 42 43  1  0  0  0  0
 42 94  1  0  0  0  0
 43 44  1  0  0  0  0
 43 96  1  0  0  0  0
 44 47  1  0  0  0  0
 44 99  1  0  0  0  0
 44100  1  0  0  0  0
 45 51  1  0  0  0  0
 45102  1  0  0  0  0
 47 50  1  0  0  0  0
 47103  1  0  0  0  0
 48 54  1  0  0  0  0
 48104  1  0  0  0  0
 49 52  1  0  0  0  0
 49105  1  0  0  0  0
 49106  1  0  0  0  0
 51 60  1  0  0  0  0
 51110  1  0  0  0  0
 52111  1  0  0  0  0
 52112  1  0  0  0  0
 53 56  1  0  0  0  0
 53 57  1  0  0  0  0
 53 66  1  0  0  0  0
 53113  1  0  0  0  0
 54115  1  0  0  0  0
 54116  1  0  0  0  0
 54117  1  0  0  0  0
 55 67  1  0  0  0  0
 55119  1  0  0  0  0
 55120  1  0  0  0  0
 56 58  1  0  0  0  0
 56121  1  0  0  0  0
 56122  1  0  0  0  0
 57 59  1  0  0  0  0
 57123  1  0  0  0  0
 57124  1  0  0  0  0
 58 68  1  0  0  0  0
 58 71  1  0  0  0  0
 58126  1  0  0  0  0
 59 61  1  0  0  0  0
 59127  1  0  0  0  0
 59128  1  0  0  0  0
 60 72  2  0  0  0  0
 60 73  1  0  0  0  0
 61 63  1  0  0  0  0
 61130  1  0  0  0  0
 61131  1  0  0  0  0
 62 64  1  0  0  0  0
 63 65  1  0  0  0  0
 63133  1  0  0  0  0
 63134  1  0  0  0  0
 64 69  1  0  0  0  0
 64135  1  0  0  0  0
 64136  1  0  0  0  0
 65 70  1  0  0  0  0
 65140  1  0  0  0  0
 65141  1  0  0  0  0
 66137  1  0  0  0  0
 66138  1  0  0  0  0
 66139  1  0  0  0  0
 67142  1  0  0  0  0
 67143  1  0  0  0  0
 68 74  1  0  0  0  0
 68144  1  0  0  0  0
 68145  1  0  0  0  0
 69 70  1  0  0  0  0
 69146  1  0  0  0  0
 69147  1  0  0  0  0
 70148  1  0  0  0  0
 70149  1  0  0  0  0
 71151  1  0  0  0  0
 71152  1  0  0  0  0
 71153  1  0  0  0  0
 72 75  1  0  0  0  0
 72156  1  0  0  0  0
 73 76  2  0  0  0  0
 73157  1  0  0  0  0
 74158  1  0  0  0  0
 74159  1  0  0  0  0
 74160  1  0  0  0  0
 75 77  2  0  0  0  0
 75163  1  0  0  0  0
 76 77  1  0  0  0  0
 76164  1  0  0  0  0
M  END
> <PUBCHEM_COMPOUND_CID>
2826718

> <PUBCHEM_COMPOUND_CANONICALIZED>
1

> <PUBCHEM_CACTVS_COMPLEXITY>
1900

> <PUBCHEM_CACTVS_HBOND_ACCEPTOR>
18

> <PUBCHEM_CACTVS_HBOND_DONOR>
16

> <PUBCHEM_CACTVS_ROTATABLE_BOND>
23

> <PUBCHEM_CACTVS_SUBSKEYS>
AAADcfB//AAAAAAAAAAAAAAAAAAAAWLAAAAwAAAAAAAAAAABAAAAHgAQCAAADTzhmAYzBoPAAgCIAiFSEAACAAAgIAAIiIGOCIiLdjaCkTKUcAAu9xOZmAe66eSOIAAAAAAAAABAAAAAAAAAAAAAAAAAAA==

> <PUBCHEM_IUPAC_OPENEYE_NAME>
N-[(3S,6S,9S,11R,15S,18S,20R,21S,24S,25S)-21-(2-aminoethylamino)-3-[(1R)-3-amino-1-hydroxy-propyl]-6-[(1S,2S)-1,2-dihydroxy-2-(4-hydroxyphenyl)ethyl]-11,20,25-trihydroxy-15-[(1R)-1-hydroxyethyl]-2,5,8,14,17,23-hexaoxo-1,4,7,13,16,22-hexazatricyclo[22.3.0.09,13]heptacosan-18-yl]-10,12-dimethyl-tetradecanamide

> <PUBCHEM_IUPAC_CAS_NAME>
N-[(3S,6S,9S,11R,15S,18S,20R,21S,24S,25S)-21-(2-aminoethylamino)-3-[(1R)-3-amino-1-hydroxypropyl]-6-[(1S,2S)-1,2-dihydroxy-2-(4-hydroxyphenyl)ethyl]-11,20,25-trihydroxy-15-[(1R)-1-hydroxyethyl]-2,5,8,14,17,23-hexaoxo-1,4,7,13,16,22-hexazatricyclo[22.3.0.09,13]heptacosan-18-yl]-10,12-dimethyltetradecanamide

> <PUBCHEM_IUPAC_NAME_MARKUP>
<I>N</I>-[(3<I>S</I>,6<I>S</I>,9<I>S</I>,11<I>R</I>,15<I>S</I>,18<I>S</I>,20<I>R</I>,21<I>S</I>,24<I>S</I>,25<I>S</I>)-21-(2-aminoethylamino)-3-[(1<I>R</I>)-3-amino-1-hydroxypropyl]-6-[(1<I>S</I>,2<I>S</I>)-1,2-dihydroxy-2-(4-hydroxyphenyl)ethyl]-11,20,25-trihydroxy-15-[(1<I>R</I>)-1-hydroxyethyl]-2,5,8,14,17,23-hexaoxo-1,4,7,13,16,22-hexazatricyclo[22.3.0.0<SUP>9,13</SUP>]heptacosan-18-yl]-10,12-dimethyltetradecanamide

> <PUBCHEM_IUPAC_NAME>
N-[(3S,6S,9S,11R,15S,18S,20R,21S,24S,25S)-21-(2-aminoethylamino)-3-[(1R)-3-amino-1-hydroxypropyl]-6-[(1S,2S)-1,2-dihydroxy-2-(4-hydroxyphenyl)ethyl]-11,20,25-trihydroxy-15-[(1R)-1-hydroxyethyl]-2,5,8,14,17,23-hexaoxo-1,4,7,13,16,22-hexazatricyclo[22.3.0.09,13]heptacosan-18-yl]-10,12-dimethyltetradecanamide

> <PUBCHEM_IUPAC_SYSTEMATIC_NAME>
N-[(3S,6S,9S,11R,15S,18S,20R,21S,24S,25S)-21-(2-azanylethylamino)-3-[(1R)-3-azanyl-1-oxidanyl-propyl]-6-[(1S,2S)-2-(4-hydroxyphenyl)-1,2-bis(oxidanyl)ethyl]-11,20,25-tris(oxidanyl)-15-[(1R)-1-oxidanylethyl]-2,5,8,14,17,23-hexakis(oxidanylidene)-1,4,7,13,16,22-hexazatricyclo[22.3.0.09,13]heptacosan-18-yl]-10,12-dimethyl-tetradecanamide

> <PUBCHEM_IUPAC_TRADITIONAL_NAME>
N-[(3S,6S,9S,11R,15S,18S,20R,21S,24S,25S)-21-(2-aminoethylamino)-3-[(1R)-3-amino-1-hydroxy-propyl]-6-[(1S,2S)-1,2-dihydroxy-2-(4-hydroxyphenyl)ethyl]-11,20,25-trihydroxy-15-[(1R)-1-hydroxyethyl]-2,5,8,14,17,23-hexaketo-1,4,7,13,16,22-hexazatricyclo[22.3.0.09,13]heptacosan-18-yl]-10,12-dimethyl-myristamide

> <PUBCHEM_IUPAC_INCHI>
InChI=1S/C52H88N10O15/c1-5-28(2)24-29(3)12-10-8-6-7-9-11-13-39(69)56-34-26-38(68)46(55-22-21-54)60-50(75)43-37(67)19-23-61(43)52(77)41(36(66)18-20-53)58-49(74)42(45(71)44(70)31-14-16-32(64)17-15-31)59-48(73)35-25-33(65)27-62(35)51(76)40(30(4)63)57-47(34)72/h14-17,28-30,33-38,40-46,55,63-68,70-71H,5-13,18-27,53-54H2,1-4H3,(H,56,69)(H,57,72)(H,58,74)(H,59,73)(H,60,75)/t28?,29?,30-,33-,34+,35+,36-,37+,38-,40+,41+,42+,43+,44+,45+,46+/m1/s1

> <PUBCHEM_IUPAC_INCHIKEY>
JYIKNQVWKBUSNH-OGZDCFRISA-N

> <PUBCHEM_XLOGP3_AA>
0.3

> <PUBCHEM_EXACT_MASS>
1092.64306214

> <PUBCHEM_MOLECULAR_FORMULA>
C52H88N10O15

> <PUBCHEM_MOLECULAR_WEIGHT>
1093.3

> <PUBCHEM_OPENEYE_CAN_SMILES>
CCC(C)CC(C)CCCCCCCCC(=O)NC1CC(C(NC(=O)C2C(CCN2C(=O)C(NC(=O)C(NC(=O)C3CC(CN3C(=O)C(NC1=O)C(C)O)O)C(C(C4=CC=C(C=C4)O)O)O)C(CCN)O)O)NCCN)O

> <PUBCHEM_OPENEYE_ISO_SMILES>
CCC(C)CC(C)CCCCCCCCC(=O)N[C@H]1C[C@H]([C@H](NC(=O)[C@@H]2[C@H](CCN2C(=O)[C@@H](NC(=O)[C@@H](NC(=O)[C@@H]3C[C@H](CN3C(=O)[C@@H](NC1=O)[C@@H](C)O)O)[C@@H]([C@H](C4=CC=C(C=C4)O)O)O)[C@@H](CCN)O)O)NCCN)O

> <PUBCHEM_CACTVS_TPSA>
412

> <PUBCHEM_MONOISOTOPIC_WEIGHT>
1092.64306214

> <PUBCHEM_TOTAL_CHARGE>
0

> <PUBCHEM_HEAVY_ATOM_COUNT>
77

> <PUBCHEM_ATOM_DEF_STEREO_COUNT>
14

> <PUBCHEM_ATOM_UDEF_STEREO_COUNT>
2

> <PUBCHEM_BOND_DEF_STEREO_COUNT>
0

> <PUBCHEM_BOND_UDEF_STEREO_COUNT>
0

> <PUBCHEM_ISOTOPIC_ATOM_COUNT>
0

> <PUBCHEM_COMPONENT_COUNT>
1

> <PUBCHEM_CACTVS_TAUTO_COUNT>
-1

> <PUBCHEM_COORDINATE_TYPE>
1
5
255

> <PUBCHEM_BONDANNOTATIONS>
27  1  5
48  10  6
51  12  5
32  2  5
42  22  5
47  23  5
26  78  5
28  80  5
34  90  5
39  91  5
41  93  5
40  5  5
53  66  3
58  71  3
60  72  8
60  73  8
72  75  8
73  76  8
75  77  8
76  77  8
43  8  5
45  9  5

$$$$
