3085017
  -OEChem-03252401522D

 21 20  0     1  0  0  0  0  0999 V2000
    0.9169    2.3660    0.0000 Cl  0  0  0  0  0  0  0  0  0  0  0  0
    2.2830    0.0000    0.0000 O   0  0  0  0  0  0  0  0  0  0  0  0
    0.5369    5.4860    0.0000 N   0  0  0  0  0  0  0  0  0  0  0  0
    1.7830    0.8660    0.0000 C   0  0  3  0  0  0  0  0  0  0  0  0
    2.7830    0.8660    0.0000 C   0  0  0  0  0  0  0  0  0  0  0  0
    0.9169    1.3660    0.0000 C   0  0  0  0  0  0  0  0  0  0  0  0
    1.4030    4.9860    0.0000 C   0  0  0  0  0  0  0  0  0  0  0  0
    2.2690    5.4860    0.0000 C   0  0  0  0  0  0  0  0  0  0  0  0
    3.1350    4.9860    0.0000 C   0  0  0  0  0  0  0  0  0  0  0  0
    1.3446    0.4276    0.0000 H   0  0  0  0  0  0  0  0  0  0  0  0
    3.3656    0.6540    0.0000 H   0  0  0  0  0  0  0  0  0  0  0  0
    2.8906    1.4766    0.0000 H   0  0  0  0  0  0  0  0  0  0  0  0
    0.3064    1.4737    0.0000 H   0  0  0  0  0  0  0  0  0  0  0  0
    0.7049    0.7834    0.0000 H   0  0  0  0  0  0  0  0  0  0  0  0
    1.0044    4.5111    0.0000 H   0  0  0  0  0  0  0  0  0  0  0  0
    1.8015    4.5111    0.0000 H   0  0  0  0  0  0  0  0  0  0  0  0
    2.2690    6.1060    0.0000 H   0  0  0  0  0  0  0  0  0  0  0  0
    0.0000    5.1760    0.0000 H   0  0  0  0  0  0  0  0  0  0  0  0
    0.5369    6.1060    0.0000 H   0  0  0  0  0  0  0  0  0  0  0  0
    3.1350    4.3660    0.0000 H   0  0  0  0  0  0  0  0  0  0  0  0
    3.6720    5.2960    0.0000 H   0  0  0  0  0  0  0  0  0  0  0  0
  1  6  1  0  0  0  0
  2  4  1  0  0  0  0
  2  5  1  0  0  0  0
  3  7  1  0  0  0  0
  3 18  1  0  0  0  0
  3 19  1  0  0  0  0
  4  5  1  0  0  0  0
  4  6  1  0  0  0  0
  4 10  1  0  0  0  0
  5 11  1  0  0  0  0
  5 12  1  0  0  0  0
  6 13  1  0  0  0  0
  6 14  1  0  0  0  0
  7  8  1  0  0  0  0
  7 15  1  0  0  0  0
  7 16  1  0  0  0  0
  8  9  2  0  0  0  0
  8 17  1  0  0  0  0
  9 20  1  0  0  0  0
  9 21  1  0  0  0  0
M  END
> <PUBCHEM_COMPOUND_CID>
3085017

> <PUBCHEM_COMPOUND_CANONICALIZED>
1

> <PUBCHEM_CACTVS_COMPLEXITY>
55.1

> <PUBCHEM_CACTVS_HBOND_ACCEPTOR>
2

> <PUBCHEM_CACTVS_HBOND_DONOR>
1

> <PUBCHEM_CACTVS_ROTATABLE_BOND>
2

> <PUBCHEM_CACTVS_SUBSKEYS>
AAADccBiIAAEAAAAAAAAAAAAEgAAAAAAAAAAAAAAAAAAAAAAAAAAHgIQAAAACBfhgEYAAABABACAACBCAACAAAAAAAAIAIAAAwAAAAAAAQAAAAAAEAAAAAAAAAAAAAAAAAAAAAAAAAAAAAAAAAAAAAAAAA==

> <PUBCHEM_IUPAC_OPENEYE_NAME>
2-(chloromethyl)oxirane;prop-2-en-1-amine

> <PUBCHEM_IUPAC_CAS_NAME>
2-(chloromethyl)oxirane;2-propen-1-amine

> <PUBCHEM_IUPAC_NAME_MARKUP>
2-(chloromethyl)oxirane;prop-2-en-1-amine

> <PUBCHEM_IUPAC_NAME>
2-(chloromethyl)oxirane;prop-2-en-1-amine

> <PUBCHEM_IUPAC_SYSTEMATIC_NAME>
2-(chloromethyl)oxirane;prop-2-en-1-amine

> <PUBCHEM_IUPAC_TRADITIONAL_NAME>
allylamine;2-(chloromethyl)oxirane

> <PUBCHEM_IUPAC_INCHI>
InChI=1S/C3H5ClO.C3H7N/c4-1-3-2-5-3;1-2-3-4/h3H,1-2H2;2H,1,3-4H2

> <PUBCHEM_IUPAC_INCHIKEY>
ZNSIZMQNQCNRBW-UHFFFAOYSA-N

> <PUBCHEM_EXACT_MASS>
149.0607417

> <PUBCHEM_MOLECULAR_FORMULA>
C6H12ClNO

> <PUBCHEM_MOLECULAR_WEIGHT>
149.62

> <PUBCHEM_OPENEYE_CAN_SMILES>
C=CCN.C1C(O1)CCl

> <PUBCHEM_OPENEYE_ISO_SMILES>
C=CCN.C1C(O1)CCl

> <PUBCHEM_CACTVS_TPSA>
38.6

> <PUBCHEM_MONOISOTOPIC_WEIGHT>
149.0607417

> <PUBCHEM_TOTAL_CHARGE>
0

> <PUBCHEM_HEAVY_ATOM_COUNT>
9

> <PUBCHEM_ATOM_DEF_STEREO_COUNT>
0

> <PUBCHEM_ATOM_UDEF_STEREO_COUNT>
1

> <PUBCHEM_BOND_DEF_STEREO_COUNT>
0

> <PUBCHEM_BOND_UDEF_STEREO_COUNT>
0

> <PUBCHEM_ISOTOPIC_ATOM_COUNT>
0

> <PUBCHEM_COMPONENT_COUNT>
2

> <PUBCHEM_CACTVS_TAUTO_COUNT>
-1

> <PUBCHEM_COORDINATE_TYPE>
1
5
255

> <PUBCHEM_BONDANNOTATIONS>
4  6  3

$$$$
