5282226
  -OEChem-03252401492D

 70 71  0     1  0  0  0  0  0999 V2000
   12.1384    4.4571    0.0000 F   0  0  0  0  0  0  0  0  0  0  0  0
   13.1384    5.4571    0.0000 F   0  0  0  0  0  0  0  0  0  0  0  0
   14.1384    4.4571    0.0000 F   0  0  0  0  0  0  0  0  0  0  0  0
    8.5865   -4.8907    0.0000 O   0  0  0  0  0  0  0  0  0  0  0  0
   11.4344   -2.8216    0.0000 O   0  0  0  0  0  0  0  0  0  0  0  0
    9.6743    0.4571    0.0000 O   0  0  0  0  0  0  0  0  0  0  0  0
   11.4064    1.4571    0.0000 O   0  0  0  0  0  0  0  0  0  0  0  0
    3.6942    0.3707    0.0000 O   0  0  0  0  0  0  0  0  0  0  0  0
    3.1590   -1.2766    0.0000 O   0  0  0  0  0  0  0  0  0  0  0  0
    8.8653   -3.1307    0.0000 C   0  0  2  0  0  0  0  0  0  0  0  0
    9.6743   -2.5429    0.0000 C   0  0  2  0  0  0  0  0  0  0  0  0
    9.1743   -4.0817    0.0000 C   0  0  2  0  0  0  0  0  0  0  0  0
   10.4833   -3.1307    0.0000 C   0  0  1  0  0  0  0  0  0  0  0  0
   10.1743   -4.0817    0.0000 C   0  0  0  0  0  0  0  0  0  0  0  0
    7.9142   -2.8216    0.0000 C   0  0  0  0  0  0  0  0  0  0  0  0
    9.6743   -1.5429    0.0000 C   0  0  0  0  0  0  0  0  0  0  0  0
    7.1711   -3.4908    0.0000 C   0  0  0  0  0  0  0  0  0  0  0  0
   10.5403   -1.0429    0.0000 C   0  0  0  0  0  0  0  0  0  0  0  0
   10.5403   -0.0429    0.0000 C   0  0  2  0  0  0  0  0  0  0  0  0
    6.2200   -3.1818    0.0000 C   0  0  0  0  0  0  0  0  0  0  0  0
    6.0121   -2.2036    0.0000 C   0  0  0  0  0  0  0  0  0  0  0  0
   11.4064    0.4571    0.0000 C   0  0  0  0  0  0  0  0  0  0  0  0
    5.0611   -1.8946    0.0000 C   0  0  0  0  0  0  0  0  0  0  0  0
    4.8532   -0.9164    0.0000 C   0  0  0  0  0  0  0  0  0  0  0  0
   12.2724    1.9571    0.0000 C   0  0  0  0  0  0  0  0  0  0  0  0
    3.9021   -0.6074    0.0000 C   0  0  0  0  0  0  0  0  0  0  0  0
   12.2724    2.9571    0.0000 C   0  0  0  0  0  0  0  0  0  0  0  0
   13.1384    1.4571    0.0000 C   0  0  0  0  0  0  0  0  0  0  0  0
    2.7431    0.6797    0.0000 C   0  0  0  0  0  0  0  0  0  0  0  0
   13.1384    3.4571    0.0000 C   0  0  0  0  0  0  0  0  0  0  0  0
   14.0045    1.9571    0.0000 C   0  0  0  0  0  0  0  0  0  0  0  0
   14.0045    2.9571    0.0000 C   0  0  0  0  0  0  0  0  0  0  0  0
    2.5352    1.6579    0.0000 C   0  0  0  0  0  0  0  0  0  0  0  0
    2.0000    0.0106    0.0000 C   0  0  0  0  0  0  0  0  0  0  0  0
   13.1384    4.4571    0.0000 C   0  0  0  0  0  0  0  0  0  0  0  0
    8.4269   -3.5691    0.0000 H   0  0  0  0  0  0  0  0  0  0  0  0
   10.2267   -2.2614    0.0000 H   0  0  0  0  0  0  0  0  0  0  0  0
    8.5620   -3.9847    0.0000 H   0  0  0  0  0  0  0  0  0  0  0  0
   10.5803   -2.5183    0.0000 H   0  0  0  0  0  0  0  0  0  0  0  0
   10.1095   -4.6983    0.0000 H   0  0  0  0  0  0  0  0  0  0  0  0
   10.7808   -4.2106    0.0000 H   0  0  0  0  0  0  0  0  0  0  0  0
    8.2053   -2.2742    0.0000 H   0  0  0  0  0  0  0  0  0  0  0  0
    7.4257   -2.4399    0.0000 H   0  0  0  0  0  0  0  0  0  0  0  0
    9.1374   -1.2329    0.0000 H   0  0  0  0  0  0  0  0  0  0  0  0
    8.8387   -5.4571    0.0000 H   0  0  0  0  0  0  0  0  0  0  0  0
   11.8951   -3.2365    0.0000 H   0  0  0  0  0  0  0  0  0  0  0  0
    7.3000   -4.0972    0.0000 H   0  0  0  0  0  0  0  0  0  0  0  0
   11.0773   -1.3529    0.0000 H   0  0  0  0  0  0  0  0  0  0  0  0
   10.5403    0.5771    0.0000 H   0  0  0  0  0  0  0  0  0  0  0  0
    5.7593   -3.5966    0.0000 H   0  0  0  0  0  0  0  0  0  0  0  0
    6.6318   -2.1820    0.0000 H   0  0  0  0  0  0  0  0  0  0  0  0
    6.0984   -1.5896    0.0000 H   0  0  0  0  0  0  0  0  0  0  0  0
   11.6184   -0.1255    0.0000 H   0  0  0  0  0  0  0  0  0  0  0  0
   12.0170    0.5648    0.0000 H   0  0  0  0  0  0  0  0  0  0  0  0
    4.4415   -1.9162    0.0000 H   0  0  0  0  0  0  0  0  0  0  0  0
    4.9748   -2.5086    0.0000 H   0  0  0  0  0  0  0  0  0  0  0  0
    9.1374    0.1471    0.0000 H   0  0  0  0  0  0  0  0  0  0  0  0
    5.4728   -0.8948    0.0000 H   0  0  0  0  0  0  0  0  0  0  0  0
    4.9395   -0.3025    0.0000 H   0  0  0  0  0  0  0  0  0  0  0  0
   11.7355    3.2671    0.0000 H   0  0  0  0  0  0  0  0  0  0  0  0
   13.1384    0.8371    0.0000 H   0  0  0  0  0  0  0  0  0  0  0  0
    3.2039    1.0946    0.0000 H   0  0  0  0  0  0  0  0  0  0  0  0
   14.5414    1.6471    0.0000 H   0  0  0  0  0  0  0  0  0  0  0  0
   14.5414    3.2671    0.0000 H   0  0  0  0  0  0  0  0  0  0  0  0
    3.1417    1.7868    0.0000 H   0  0  0  0  0  0  0  0  0  0  0  0
    2.4063    2.2643    0.0000 H   0  0  0  0  0  0  0  0  0  0  0  0
    1.9288    1.5290    0.0000 H   0  0  0  0  0  0  0  0  0  0  0  0
    1.5851    0.4714    0.0000 H   0  0  0  0  0  0  0  0  0  0  0  0
    1.5392   -0.4043    0.0000 H   0  0  0  0  0  0  0  0  0  0  0  0
    2.4149   -0.4501    0.0000 H   0  0  0  0  0  0  0  0  0  0  0  0
  1 35  1  0  0  0  0
  2 35  1  0  0  0  0
  3 35  1  0  0  0  0
 12  4  1  6  0  0  0
  4 45  1  0  0  0  0
 13  5  1  6  0  0  0
  5 46  1  0  0  0  0
 19  6  1  1  0  0  0
  6 57  1  0  0  0  0
  7 22  1  0  0  0  0
  7 25  1  0  0  0  0
  8 26  1  0  0  0  0
  8 29  1  0  0  0  0
  9 26  2  0  0  0  0
 10 11  1  0  0  0  0
 10 12  1  0  0  0  0
 10 15  1  6  0  0  0
 10 36  1  0  0  0  0
 11 13  1  0  0  0  0
 11 16  1  1  0  0  0
 11 37  1  0  0  0  0
 12 14  1  0  0  0  0
 12 38  1  0  0  0  0
 13 14  1  0  0  0  0
 13 39  1  0  0  0  0
 14 40  1  0  0  0  0
 14 41  1  0  0  0  0
 15 17  1  0  0  0  0
 15 42  1  0  0  0  0
 15 43  1  0  0  0  0
 16 18  2  0  0  0  0
 16 44  1  0  0  0  0
 17 20  2  0  0  0  0
 17 47  1  0  0  0  0
 18 19  1  0  0  0  0
 18 48  1  0  0  0  0
 19 22  1  0  0  0  0
 19 49  1  0  0  0  0
 20 21  1  0  0  0  0
 20 50  1  0  0  0  0
 21 23  1  0  0  0  0
 21 51  1  0  0  0  0
 21 52  1  0  0  0  0
 22 53  1  0  0  0  0
 22 54  1  0  0  0  0
 23 24  1  0  0  0  0
 23 55  1  0  0  0  0
 23 56  1  0  0  0  0
 24 26  1  0  0  0  0
 24 58  1  0  0  0  0
 24 59  1  0  0  0  0
 25 27  1  0  0  0  0
 25 28  2  0  0  0  0
 27 30  2  0  0  0  0
 27 60  1  0  0  0  0
 28 31  1  0  0  0  0
 28 61  1  0  0  0  0
 29 33  1  0  0  0  0
 29 34  1  0  0  0  0
 29 62  1  0  0  0  0
 30 32  1  0  0  0  0
 30 35  1  0  0  0  0
 31 32  2  0  0  0  0
 31 63  1  0  0  0  0
 32 64  1  0  0  0  0
 33 65  1  0  0  0  0
 33 66  1  0  0  0  0
 33 67  1  0  0  0  0
 34 68  1  0  0  0  0
 34 69  1  0  0  0  0
 34 70  1  0  0  0  0
M  END
> <PUBCHEM_COMPOUND_CID>
5282226

> <PUBCHEM_COMPOUND_CANONICALIZED>
1

> <PUBCHEM_CACTVS_COMPLEXITY>
693

> <PUBCHEM_CACTVS_HBOND_ACCEPTOR>
9

> <PUBCHEM_CACTVS_HBOND_DONOR>
3

> <PUBCHEM_CACTVS_ROTATABLE_BOND>
13

> <PUBCHEM_CACTVS_SUBSKEYS>
AAADcfB4OYAAAAAAAAAAAAAAAAAAAYAAAAAwAAAAAAAAAAABAAAAGwAACAAADRSgmBIyDoAABgCIAiDSCAACCAAgIAAIiAEGCIgNNjKEMRqCeCClwBELuAfIwLAOgAABAAAAAAAAAAIAAAAAAIQADAAAAA==

> <PUBCHEM_IUPAC_OPENEYE_NAME>
isopropyl (Z)-7-[(1R,2R,3R,5S)-3,5-dihydroxy-2-[(E,3R)-3-hydroxy-4-[3-(trifluoromethyl)phenoxy]but-1-enyl]cyclopentyl]hept-5-enoate

> <PUBCHEM_IUPAC_CAS_NAME>
(Z)-7-[(1R,2R,3R,5S)-3,5-dihydroxy-2-[(E,3R)-3-hydroxy-4-[3-(trifluoromethyl)phenoxy]but-1-enyl]cyclopentyl]-5-heptenoic acid propan-2-yl ester

> <PUBCHEM_IUPAC_NAME_MARKUP>
propan-2-yl (<I>Z</I>)-7-[(1<I>R</I>,2<I>R</I>,3<I>R</I>,5<I>S</I>)-3,5-dihydroxy-2-[(<I>E</I>,3<I>R</I>)-3-hydroxy-4-[3-(trifluoromethyl)phenoxy]but-1-enyl]cyclopentyl]hept-5-enoate

> <PUBCHEM_IUPAC_NAME>
propan-2-yl (Z)-7-[(1R,2R,3R,5S)-3,5-dihydroxy-2-[(E,3R)-3-hydroxy-4-[3-(trifluoromethyl)phenoxy]but-1-enyl]cyclopentyl]hept-5-enoate

> <PUBCHEM_IUPAC_SYSTEMATIC_NAME>
propan-2-yl (Z)-7-[(1R,2R,3R,5S)-3,5-bis(oxidanyl)-2-[(E,3R)-3-oxidanyl-4-[3-(trifluoromethyl)phenoxy]but-1-enyl]cyclopentyl]hept-5-enoate

> <PUBCHEM_IUPAC_TRADITIONAL_NAME>
(Z)-7-[(1R,2R,3R,5S)-3,5-dihydroxy-2-[(E,3R)-3-hydroxy-4-[3-(trifluoromethyl)phenoxy]but-1-enyl]cyclopentyl]hept-5-enoic acid isopropyl ester

> <PUBCHEM_IUPAC_INCHI>
InChI=1S/C26H35F3O6/c1-17(2)35-25(33)11-6-4-3-5-10-21-22(24(32)15-23(21)31)13-12-19(30)16-34-20-9-7-8-18(14-20)26(27,28)29/h3,5,7-9,12-14,17,19,21-24,30-32H,4,6,10-11,15-16H2,1-2H3/b5-3-,13-12+/t19-,21-,22-,23+,24-/m1/s1

> <PUBCHEM_IUPAC_INCHIKEY>
MKPLKVHSHYCHOC-AHTXBMBWSA-N

> <PUBCHEM_XLOGP3_AA>
4.1

> <PUBCHEM_EXACT_MASS>
500.23857332

> <PUBCHEM_MOLECULAR_FORMULA>
C26H35F3O6

> <PUBCHEM_MOLECULAR_WEIGHT>
500.5

> <PUBCHEM_OPENEYE_CAN_SMILES>
CC(C)OC(=O)CCCC=CCC1C(CC(C1C=CC(COC2=CC=CC(=C2)C(F)(F)F)O)O)O

> <PUBCHEM_OPENEYE_ISO_SMILES>
CC(C)OC(=O)CCC/C=C\C[C@H]1[C@H](C[C@H]([C@@H]1/C=C/[C@H](COC2=CC=CC(=C2)C(F)(F)F)O)O)O

> <PUBCHEM_CACTVS_TPSA>
96.2

> <PUBCHEM_MONOISOTOPIC_WEIGHT>
500.23857332

> <PUBCHEM_TOTAL_CHARGE>
0

> <PUBCHEM_HEAVY_ATOM_COUNT>
35

> <PUBCHEM_ATOM_DEF_STEREO_COUNT>
5

> <PUBCHEM_ATOM_UDEF_STEREO_COUNT>
0

> <PUBCHEM_BOND_DEF_STEREO_COUNT>
2

> <PUBCHEM_BOND_UDEF_STEREO_COUNT>
0

> <PUBCHEM_ISOTOPIC_ATOM_COUNT>
0

> <PUBCHEM_COMPONENT_COUNT>
1

> <PUBCHEM_CACTVS_TAUTO_COUNT>
-1

> <PUBCHEM_COORDINATE_TYPE>
1
5
255

> <PUBCHEM_BONDANNOTATIONS>
10  15  6
11  16  5
25  27  8
25  28  8
27  30  8
28  31  8
30  32  8
31  32  8
12  4  6
13  5  6
19  6  5

$$$$
