21944094
  -OEChem-03252401472D

144147  0     1  0  0  0  0  0999 V2000
    2.6754   -1.2004    0.0000 O   0  0  0  0  0  0  0  0  0  0  0  0
    3.6756   -2.9326    0.0000 O   0  0  0  0  0  0  0  0  0  0  0  0
    7.6548    2.3584    0.0000 O   0  0  0  0  0  0  0  0  0  0  0  0
   12.1262   -1.2500    0.0000 O   0  0  0  0  0  0  0  0  0  0  0  0
   10.2744   -0.5820    0.0000 O   0  0  0  0  0  0  0  0  0  0  0  0
    9.5844    1.3635    0.0000 O   0  0  0  0  0  0  0  0  0  0  0  0
    4.6562    1.1458    0.0000 O   0  0  0  0  0  0  0  0  0  0  0  0
   12.1262    0.7500    0.0000 O   0  0  0  0  0  0  0  0  0  0  0  0
   10.2205   -1.2652    0.0000 O   0  0  0  0  0  0  0  0  0  0  0  0
    9.5281    0.2500    0.0000 O   0  0  0  0  0  0  0  0  0  0  0  0
    4.2937    2.0030    0.0000 O   0  0  0  0  0  0  0  0  0  0  0  0
    3.5128   -0.3236    0.0000 O   0  0  0  0  0  0  0  0  0  0  0  0
    5.6980    1.6160    0.0000 O   0  0  0  0  0  0  0  0  0  0  0  0
   10.3941    1.7500    0.0000 N   0  0  0  0  0  0  0  0  0  0  0  0
    5.1756   -0.3345    0.0000 C   0  0  1  0  0  0  0  0  0  0  0  0
    4.1754   -0.3344    0.0000 C   0  0  0  0  0  0  0  0  0  0  0  0
    5.6755   -1.2005    0.0000 C   0  0  0  0  0  0  0  0  0  0  0  0
    5.6754    0.5316    0.0000 C   0  0  0  0  0  0  0  0  0  0  0  0
    3.6755   -1.2005    0.0000 C   0  0  2  0  0  0  0  0  0  0  0  0
    5.1757   -2.0666    0.0000 C   0  0  0  0  0  0  0  0  0  0  0  0
    4.1756   -2.0666    0.0000 C   0  0  1  0  0  0  0  0  0  0  0  0
    6.6153    0.8736    0.0000 C   0  0  2  0  0  0  0  0  0  0  0  0
    6.7888    1.8584    0.0000 C   0  0  2  0  0  0  0  0  0  0  0  0
    6.9572   -0.0660    0.0000 C   0  0  0  0  0  0  0  0  0  0  0  0
    5.9227    2.3584    0.0000 C   0  0  0  0  0  0  0  0  0  0  0  0
   12.1340   -0.2319    0.0000 C   0  0  1  0  0  0  0  0  0  0  0  0
    9.5281    2.2500    0.0000 C   0  0  1  0  0  0  0  0  0  0  0  0
   11.2602   -0.7500    0.0000 C   0  0  2  0  0  0  0  0  0  0  0  0
   12.1262   -2.2500    0.0000 C   0  0  1  0  0  0  0  0  0  0  0  0
   13.0156   -0.7365    0.0000 C   0  0  0  0  0  0  0  0  0  0  0  0
   13.0117   -1.7523    0.0000 C   0  0  0  0  0  0  0  0  0  0  0  0
    9.5281    3.2500    0.0000 C   0  0  0  0  0  0  0  0  0  0  0  0
    8.6621    1.7500    0.0000 C   0  0  0  0  0  0  0  0  0  0  0  0
    4.9568    2.0996    0.0000 C   0  0  0  0  0  0  0  0  0  0  0  0
   11.2602    2.2500    0.0000 C   0  0  0  0  0  0  0  0  0  0  0  0
   10.3941    3.7500    0.0000 C   0  0  0  0  0  0  0  0  0  0  0  0
   11.2602    3.2500    0.0000 C   0  0  0  0  0  0  0  0  0  0  0  0
    2.1754   -2.0665    0.0000 C   0  0  0  0  0  0  0  0  0  0  0  0
   11.2602   -2.7500    0.0000 C   0  0  0  0  0  0  0  0  0  0  0  0
   11.2602    0.2500    0.0000 C   0  0  0  0  0  0  0  0  0  0  0  0
   10.3941    0.7500    0.0000 C   0  0  0  0  0  0  0  0  0  0  0  0
   12.9961    0.2747    0.0000 C   0  0  0  0  0  0  0  0  0  0  0  0
    4.0908    2.5996    0.0000 C   0  0  2  0  0  0  0  0  0  0  0  0
   10.3941   -2.2500    0.0000 C   0  0  1  0  0  0  0  0  0  0  0  0
    4.2213    3.5910    0.0000 C   0  0  0  0  0  0  0  0  0  0  0  0
    3.1248    2.3408    0.0000 C   0  0  0  0  0  0  0  0  0  0  0  0
    9.5281   -2.7500    0.0000 C   0  0  0  0  0  0  0  0  0  0  0  0
    2.8660    1.3748    0.0000 C   0  0  0  0  0  0  0  0  0  0  0  0
    3.8320    1.1160    0.0000 C   0  0  2  0  0  0  0  0  0  0  0  0
    9.5281   -3.7500    0.0000 C   0  0  0  0  0  0  0  0  0  0  0  0
    8.6621   -2.2500    0.0000 C   0  0  0  0  0  0  0  0  0  0  0  0
    4.3320    0.2500    0.0000 C   0  0  2  0  0  0  0  0  0  0  0  0
    9.2808   -0.9232    0.0000 C   0  0  0  0  0  0  0  0  0  0  0  0
    2.0000    0.8748    0.0000 C   0  0  0  0  0  0  0  0  0  0  0  0
    6.0640    0.2500    0.0000 C   0  0  1  0  0  0  0  0  0  0  0  0
    5.1980    0.7500    0.0000 C   0  0  0  0  0  0  0  0  0  0  0  0
    7.7960   -2.7500    0.0000 C   0  0  0  0  0  0  0  0  0  0  0  0
    6.9300    0.7500    0.0000 C   0  0  0  0  0  0  0  0  0  0  0  0
    7.7960    0.2500    0.0000 C   0  0  1  0  0  0  0  0  0  0  0  0
    5.6708   -0.8307    0.0000 C   0  0  0  0  0  0  0  0  0  0  0  0
    6.9300   -2.2500    0.0000 C   0  0  0  0  0  0  0  0  0  0  0  0
    7.7960   -0.7500    0.0000 C   0  0  0  0  0  0  0  0  0  0  0  0
    8.6621    0.7500    0.0000 C   0  0  0  0  0  0  0  0  0  0  0  0
    6.9300   -1.2500    0.0000 C   0  0  0  0  0  0  0  0  0  0  0  0
    2.6065    0.0991    0.0000 C   0  0  0  0  0  0  0  0  0  0  0  0
    5.7956   -0.3345    0.0000 H   0  0  0  0  0  0  0  0  0  0  0  0
    4.2831    0.2761    0.0000 H   0  0  0  0  0  0  0  0  0  0  0  0
    3.5928   -0.1224    0.0000 H   0  0  0  0  0  0  0  0  0  0  0  0
    6.1505   -1.5990    0.0000 H   0  0  0  0  0  0  0  0  0  0  0  0
    6.1505   -0.8020    0.0000 H   0  0  0  0  0  0  0  0  0  0  0  0
    5.6394    1.1505    0.0000 H   0  0  0  0  0  0  0  0  0  0  0  0
    5.0721    0.6745    0.0000 H   0  0  0  0  0  0  0  0  0  0  0  0
    3.3655   -1.7375    0.0000 H   0  0  0  0  0  0  0  0  0  0  0  0
    5.0681   -2.6772    0.0000 H   0  0  0  0  0  0  0  0  0  0  0  0
    5.7584   -2.2786    0.0000 H   0  0  0  0  0  0  0  0  0  0  0  0
    4.4856   -2.6035    0.0000 H   0  0  0  0  0  0  0  0  0  0  0  0
    7.2329    0.9276    0.0000 H   0  0  0  0  0  0  0  0  0  0  0  0
    7.4851    1.3709    0.0000 H   0  0  0  0  0  0  0  0  0  0  0  0
    6.3745   -0.2780    0.0000 H   0  0  0  0  0  0  0  0  0  0  0  0
    7.1692   -0.6486    0.0000 H   0  0  0  0  0  0  0  0  0  0  0  0
    7.5398    0.1460    0.0000 H   0  0  0  0  0  0  0  0  0  0  0  0
    6.3611    2.7968    0.0000 H   0  0  0  0  0  0  0  0  0  0  0  0
    5.6127    2.8953    0.0000 H   0  0  0  0  0  0  0  0  0  0  0  0
   11.8188    0.3020    0.0000 H   0  0  0  0  0  0  0  0  0  0  0  0
    3.9857   -3.4696    0.0000 H   0  0  0  0  0  0  0  0  0  0  0  0
    8.7920    2.6750    0.0000 H   0  0  0  0  0  0  0  0  0  0  0  0
   12.5469   -2.9886    0.0000 H   0  0  0  0  0  0  0  0  0  0  0  0
   13.6261   -0.8449    0.0000 H   0  0  0  0  0  0  0  0  0  0  0  0
   13.2269   -0.1536    0.0000 H   0  0  0  0  0  0  0  0  0  0  0  0
   13.2185   -2.3368    0.0000 H   0  0  0  0  0  0  0  0  0  0  0  0
   13.6230   -1.6486    0.0000 H   0  0  0  0  0  0  0  0  0  0  0  0
    9.3160    3.8326    0.0000 H   0  0  0  0  0  0  0  0  0  0  0  0
    8.9175    3.1423    0.0000 H   0  0  0  0  0  0  0  0  0  0  0  0
   11.4722    1.6674    0.0000 H   0  0  0  0  0  0  0  0  0  0  0  0
   11.8707    2.3577    0.0000 H   0  0  0  0  0  0  0  0  0  0  0  0
   10.7927    4.2250    0.0000 H   0  0  0  0  0  0  0  0  0  0  0  0
    9.9956    4.2250    0.0000 H   0  0  0  0  0  0  0  0  0  0  0  0
   11.8707    3.1423    0.0000 H   0  0  0  0  0  0  0  0  0  0  0  0
   11.4722    3.8326    0.0000 H   0  0  0  0  0  0  0  0  0  0  0  0
   10.8616   -3.2250    0.0000 H   0  0  0  0  0  0  0  0  0  0  0  0
   11.6587   -3.2250    0.0000 H   0  0  0  0  0  0  0  0  0  0  0  0
    1.6385   -1.7566    0.0000 H   0  0  0  0  0  0  0  0  0  0  0  0
    1.8655   -2.6035    0.0000 H   0  0  0  0  0  0  0  0  0  0  0  0
    2.7124   -2.3765    0.0000 H   0  0  0  0  0  0  0  0  0  0  0  0
   13.3102   -0.2598    0.0000 H   0  0  0  0  0  0  0  0  0  0  0  0
   13.5306    0.5888    0.0000 H   0  0  0  0  0  0  0  0  0  0  0  0
   12.6820    0.8092    0.0000 H   0  0  0  0  0  0  0  0  0  0  0  0
    4.6468    2.8738    0.0000 H   0  0  0  0  0  0  0  0  0  0  0  0
   10.9020   -1.8944    0.0000 H   0  0  0  0  0  0  0  0  0  0  0  0
   10.3784    0.0292    0.0000 H   0  0  0  0  0  0  0  0  0  0  0  0
    4.8360    3.5101    0.0000 H   0  0  0  0  0  0  0  0  0  0  0  0
    4.3022    4.2057    0.0000 H   0  0  0  0  0  0  0  0  0  0  0  0
    3.6066    3.6720    0.0000 H   0  0  0  0  0  0  0  0  0  0  0  0
    2.6864    2.7792    0.0000 H   0  0  0  0  0  0  0  0  0  0  0  0
    8.9081   -3.7500    0.0000 H   0  0  0  0  0  0  0  0  0  0  0  0
    9.5281   -4.3700    0.0000 H   0  0  0  0  0  0  0  0  0  0  0  0
   10.1481   -3.7500    0.0000 H   0  0  0  0  0  0  0  0  0  0  0  0
    4.4518    1.1296    0.0000 H   0  0  0  0  0  0  0  0  0  0  0  0
    8.6621   -1.6300    0.0000 H   0  0  0  0  0  0  0  0  0  0  0  0
    4.6651   -0.2729    0.0000 H   0  0  0  0  0  0  0  0  0  0  0  0
    9.4928   -0.3406    0.0000 H   0  0  0  0  0  0  0  0  0  0  0  0
    8.6982   -0.7111    0.0000 H   0  0  0  0  0  0  0  0  0  0  0  0
    9.0687   -1.5058    0.0000 H   0  0  0  0  0  0  0  0  0  0  0  0
    1.6900    1.4118    0.0000 H   0  0  0  0  0  0  0  0  0  0  0  0
    1.4631    0.5648    0.0000 H   0  0  0  0  0  0  0  0  0  0  0  0
    2.3100    0.3379    0.0000 H   0  0  0  0  0  0  0  0  0  0  0  0
    6.5390   -0.1485    0.0000 H   0  0  0  0  0  0  0  0  0  0  0  0
    7.7960   -3.3700    0.0000 H   0  0  0  0  0  0  0  0  0  0  0  0
    7.3286    1.2250    0.0000 H   0  0  0  0  0  0  0  0  0  0  0  0
    6.5315    1.2250    0.0000 H   0  0  0  0  0  0  0  0  0  0  0  0
    3.6884    1.8688    0.0000 H   0  0  0  0  0  0  0  0  0  0  0  0
    8.3330   -0.0600    0.0000 H   0  0  0  0  0  0  0  0  0  0  0  0
    5.0882   -0.6187    0.0000 H   0  0  0  0  0  0  0  0  0  0  0  0
    5.4588   -1.4133    0.0000 H   0  0  0  0  0  0  0  0  0  0  0  0
    6.2534   -1.0427    0.0000 H   0  0  0  0  0  0  0  0  0  0  0  0
    6.3931   -2.5600    0.0000 H   0  0  0  0  0  0  0  0  0  0  0  0
    8.3330   -1.0600    0.0000 H   0  0  0  0  0  0  0  0  0  0  0  0
    8.9721    0.2131    0.0000 H   0  0  0  0  0  0  0  0  0  0  0  0
    9.1990    1.0600    0.0000 H   0  0  0  0  0  0  0  0  0  0  0  0
    8.3521    1.2869    0.0000 H   0  0  0  0  0  0  0  0  0  0  0  0
    6.3931   -0.9400    0.0000 H   0  0  0  0  0  0  0  0  0  0  0  0
    2.8686    0.6610    0.0000 H   0  0  0  0  0  0  0  0  0  0  0  0
    2.0446    0.3612    0.0000 H   0  0  0  0  0  0  0  0  0  0  0  0
    2.3444   -0.4628    0.0000 H   0  0  0  0  0  0  0  0  0  0  0  0
 19  1  1  6  0  0  0
  1 38  1  0  0  0  0
 21  2  1  1  0  0  0
  2 85  1  0  0  0  0
  3 23  1  0  0  0  0
  3 33  1  0  0  0  0
  4 28  1  0  0  0  0
  4 29  1  0  0  0  0
 28  5  1  6  0  0  0
  5110  1  0  0  0  0
  6 33  2  0  0  0  0
  7 34  2  0  0  0  0
  8 40  2  0  0  0  0
 44  9  1  1  0  0  0
  9 53  1  0  0  0  0
 10 41  2  0  0  0  0
 49 11  1  1  0  0  0
 11131  1  0  0  0  0
 52 12  1  6  0  0  0
 12 65  1  0  0  0  0
 13 56  2  0  0  0  0
 14 27  1  0  0  0  0
 14 35  1  0  0  0  0
 14 41  1  0  0  0  0
 15 16  1  0  0  0  0
 15 17  1  0  0  0  0
 15 18  1  6  0  0  0
 15 66  1  0  0  0  0
 16 19  1  0  0  0  0
 16 67  1  0  0  0  0
 16 68  1  0  0  0  0
 17 20  1  0  0  0  0
 17 69  1  0  0  0  0
 17 70  1  0  0  0  0
 18 22  1  0  0  0  0
 18 71  1  0  0  0  0
 18 72  1  0  0  0  0
 19 21  1  0  0  0  0
 19 73  1  0  0  0  0
 20 21  1  0  0  0  0
 20 74  1  0  0  0  0
 20 75  1  0  0  0  0
 21 76  1  0  0  0  0
 22 23  1  0  0  0  0
 22 24  1  6  0  0  0
 22 77  1  0  0  0  0
 23 25  1  0  0  0  0
 23 78  1  1  0  0  0
 24 79  1  0  0  0  0
 24 80  1  0  0  0  0
 24 81  1  0  0  0  0
 25 34  1  0  0  0  0
 25 82  1  0  0  0  0
 25 83  1  0  0  0  0
 26 28  1  0  0  0  0
 26 30  1  0  0  0  0
 26 42  1  6  0  0  0
 26 84  1  0  0  0  0
 27 32  1  0  0  0  0
 27 33  1  0  0  0  0
 27 86  1  1  0  0  0
 28 40  1  0  0  0  0
 29 31  1  0  0  0  0
 29 39  1  0  0  0  0
 29 87  1  6  0  0  0
 30 31  1  0  0  0  0
 30 88  1  0  0  0  0
 30 89  1  0  0  0  0
 31 90  1  0  0  0  0
 31 91  1  0  0  0  0
 32 36  1  0  0  0  0
 32 92  1  0  0  0  0
 32 93  1  0  0  0  0
 34 43  1  0  0  0  0
 35 37  1  0  0  0  0
 35 94  1  0  0  0  0
 35 95  1  0  0  0  0
 36 37  1  0  0  0  0
 36 96  1  0  0  0  0
 36 97  1  0  0  0  0
 37 98  1  0  0  0  0
 37 99  1  0  0  0  0
 38102  1  0  0  0  0
 38103  1  0  0  0  0
 38104  1  0  0  0  0
 39 44  1  0  0  0  0
 39100  1  0  0  0  0
 39101  1  0  0  0  0
 40 41  1  0  0  0  0
 42105  1  0  0  0  0
 42106  1  0  0  0  0
 42107  1  0  0  0  0
 43 45  1  1  0  0  0
 43 46  1  0  0  0  0
 43108  1  0  0  0  0
 44 47  1  0  0  0  0
 44109  1  0  0  0  0
 45111  1  0  0  0  0
 45112  1  0  0  0  0
 45113  1  0  0  0  0
 46 48  2  0  0  0  0
 46114  1  0  0  0  0
 47 50  1  0  0  0  0
 47 51  2  0  0  0  0
 48 49  1  0  0  0  0
 48 54  1  0  0  0  0
 49 52  1  0  0  0  0
 49118  1  0  0  0  0
 50115  1  0  0  0  0
 50116  1  0  0  0  0
 50117  1  0  0  0  0
 51 57  1  0  0  0  0
 51119  1  0  0  0  0
 52 56  1  0  0  0  0
 52120  1  0  0  0  0
 53121  1  0  0  0  0
 53122  1  0  0  0  0
 53123  1  0  0  0  0
 54124  1  0  0  0  0
 54125  1  0  0  0  0
 54126  1  0  0  0  0
 55 56  1  0  0  0  0
 55 58  1  0  0  0  0
 55 60  1  1  0  0  0
 55127  1  0  0  0  0
 57 61  2  0  0  0  0
 57128  1  0  0  0  0
 58 59  1  0  0  0  0
 58129  1  0  0  0  0
 58130  1  0  0  0  0
 59 62  1  0  0  0  0
 59 63  1  6  0  0  0
 59132  1  0  0  0  0
 60133  1  0  0  0  0
 60134  1  0  0  0  0
 60135  1  0  0  0  0
 61 64  1  0  0  0  0
 61136  1  0  0  0  0
 62 64  2  0  0  0  0
 62137  1  0  0  0  0
 63138  1  0  0  0  0
 63139  1  0  0  0  0
 63140  1  0  0  0  0
 64141  1  0  0  0  0
 65142  1  0  0  0  0
 65143  1  0  0  0  0
 65144  1  0  0  0  0
M  END
> <PUBCHEM_COMPOUND_CID>
21944094

> <PUBCHEM_COMPOUND_CANONICALIZED>
1

> <PUBCHEM_CACTVS_COMPLEXITY>
1760

> <PUBCHEM_CACTVS_HBOND_ACCEPTOR>
13

> <PUBCHEM_CACTVS_HBOND_DONOR>
3

> <PUBCHEM_CACTVS_ROTATABLE_BOND>
6

> <PUBCHEM_CACTVS_SUBSKEYS>
AAADcfB+PAAAAAAAAAAAAAAAAAAAAAAAAAA8SIAAAAAAAAAAAAAAHgAACAAADTzhgAYCCAMABgCIAqHSGAIAAAAgAAAICAHIAAgbFBYAoSQHUAAH5gCfsAOY6PSOAAAAAAAAAABAAAIAAACAAAAAAAAAAA==

> <PUBCHEM_IUPAC_OPENEYE_NAME>
(1R,9S,12S,15R,16E,18R,19R,21R,23S,24Z,26E,28E,30S,32S,35R)-1,18-dihydroxy-12-[(1R)-2-[(1S,3R,4R)-4-hydroxy-3-methoxy-cyclohexyl]-1-methyl-ethyl]-19,30-dimethoxy-15,17,21,23,29,35-hexamethyl-11,36-dioxa-4-azatricyclo[30.3.1.04,9]hexatriaconta-16,24,26,28-tetraene-2,3,10,14,20-pentone

> <PUBCHEM_IUPAC_CAS_NAME>
(1R,9S,12S,15R,16E,18R,19R,21R,23S,24Z,26E,28E,30S,32S,35R)-1,18-dihydroxy-12-[(2R)-1-[(1S,3R,4R)-4-hydroxy-3-methoxycyclohexyl]propan-2-yl]-19,30-dimethoxy-15,17,21,23,29,35-hexamethyl-11,36-dioxa-4-azatricyclo[30.3.1.04,9]hexatriaconta-16,24,26,28-tetraene-2,3,10,14,20-pentone

> <PUBCHEM_IUPAC_NAME_MARKUP>
(1<I>R</I>,9<I>S</I>,12<I>S</I>,15<I>R</I>,16<I>E</I>,18<I>R</I>,19<I>R</I>,21<I>R</I>,23<I>S</I>,24<I>Z</I>,26<I>E</I>,28<I>E</I>,30<I>S</I>,32<I>S</I>,35<I>R</I>)-1,18-dihydroxy-12-[(2<I>R</I>)-1-[(1<I>S</I>,3<I>R</I>,4<I>R</I>)-4-hydroxy-3-methoxycyclohexyl]propan-2-yl]-19,30-dimethoxy-15,17,21,23,29,35-hexamethyl-11,36-dioxa-4-azatricyclo[30.3.1.0<SUP>4,9</SUP>]hexatriaconta-16,24,26,28-tetraene-2,3,10,14,20-pentone

> <PUBCHEM_IUPAC_NAME>
(1R,9S,12S,15R,16E,18R,19R,21R,23S,24Z,26E,28E,30S,32S,35R)-1,18-dihydroxy-12-[(2R)-1-[(1S,3R,4R)-4-hydroxy-3-methoxycyclohexyl]propan-2-yl]-19,30-dimethoxy-15,17,21,23,29,35-hexamethyl-11,36-dioxa-4-azatricyclo[30.3.1.04,9]hexatriaconta-16,24,26,28-tetraene-2,3,10,14,20-pentone

> <PUBCHEM_IUPAC_SYSTEMATIC_NAME>
(1R,9S,12S,15R,16E,18R,19R,21R,23S,24Z,26E,28E,30S,32S,35R)-19,30-dimethoxy-12-[(2R)-1-[(1S,3R,4R)-3-methoxy-4-oxidanyl-cyclohexyl]propan-2-yl]-15,17,21,23,29,35-hexamethyl-1,18-bis(oxidanyl)-11,36-dioxa-4-azatricyclo[30.3.1.04,9]hexatriaconta-16,24,26,28-tetraene-2,3,10,14,20-pentone

> <PUBCHEM_IUPAC_TRADITIONAL_NAME>
(1R,9S,12S,15R,16E,18R,19R,21R,23S,24Z,26E,28E,30S,32S,35R)-1,18-dihydroxy-12-[(1R)-2-[(1S,3R,4R)-4-hydroxy-3-methoxy-cyclohexyl]-1-methyl-ethyl]-19,30-dimethoxy-15,17,21,23,29,35-hexamethyl-11,36-dioxa-4-azatricyclo[30.3.1.04,9]hexatriaconta-16,24,26,28-tetraene-2,3,10,14,20-pentone

> <PUBCHEM_IUPAC_INCHI>
InChI=1S/C51H79NO13/c1-30-16-12-11-13-17-31(2)42(61-8)28-38-21-19-36(7)51(60,65-38)48(57)49(58)52-23-15-14-18-39(52)50(59)64-43(33(4)26-37-20-22-40(53)44(27-37)62-9)29-41(54)32(3)25-35(6)46(56)47(63-10)45(55)34(5)24-30/h11-13,16-17,25,30,32-34,36-40,42-44,46-47,53,56,60H,14-15,18-24,26-29H2,1-10H3/b13-11+,16-12-,31-17+,35-25+/t30-,32-,33-,34-,36-,37+,38+,39+,40-,42+,43+,44-,46-,47+,51-/m1/s1

> <PUBCHEM_IUPAC_INCHIKEY>
QFJCIRLUMZQUOT-KADBNGAOSA-N

> <PUBCHEM_XLOGP3_AA>
6

> <PUBCHEM_EXACT_MASS>
913.55514157

> <PUBCHEM_MOLECULAR_FORMULA>
C51H79NO13

> <PUBCHEM_MOLECULAR_WEIGHT>
914.2

> <PUBCHEM_OPENEYE_CAN_SMILES>
CC1CCC2CC(C(=CC=CC=CC(CC(C(=O)C(C(C(=CC(C(=O)CC(OC(=O)C3CCCCN3C(=O)C(=O)C1(O2)O)C(C)CC4CCC(C(C4)OC)O)C)C)O)OC)C)C)C)OC

> <PUBCHEM_OPENEYE_ISO_SMILES>
C[C@@H]1CC[C@H]2C[C@@H](/C(=C/C=C/C=C\[C@H](C[C@H](C(=O)[C@@H]([C@@H](/C(=C/[C@H](C(=O)C[C@H](OC(=O)[C@@H]3CCCCN3C(=O)C(=O)[C@@]1(O2)O)[C@H](C)C[C@@H]4CC[C@H]([C@@H](C4)OC)O)C)/C)O)OC)C)C)/C)OC

> <PUBCHEM_CACTVS_TPSA>
195

> <PUBCHEM_MONOISOTOPIC_WEIGHT>
913.55514157

> <PUBCHEM_TOTAL_CHARGE>
0

> <PUBCHEM_HEAVY_ATOM_COUNT>
65

> <PUBCHEM_ATOM_DEF_STEREO_COUNT>
15

> <PUBCHEM_ATOM_UDEF_STEREO_COUNT>
0

> <PUBCHEM_BOND_DEF_STEREO_COUNT>
4

> <PUBCHEM_BOND_UDEF_STEREO_COUNT>
0

> <PUBCHEM_ISOTOPIC_ATOM_COUNT>
0

> <PUBCHEM_COMPONENT_COUNT>
1

> <PUBCHEM_CACTVS_TAUTO_COUNT>
-1

> <PUBCHEM_COORDINATE_TYPE>
1
5
255

> <PUBCHEM_BONDANNOTATIONS>
19  1  6
49  11  5
52  12  6
15  18  6
21  2  5
22  24  6
23  78  5
26  42  6
27  86  5
29  87  6
43  45  5
28  5  6
55  60  5
59  63  6
44  9  5

$$$$
