62887
  -OEChem-03252401482D

139144  0     1  0  0  0  0  0999 V2000
    2.8680   -3.8382    0.0000 O   0  0  0  0  0  0  0  0  0  0  0  0
   20.4161    6.2932    0.0000 O   0  0  0  0  0  0  0  0  0  0  0  0
    2.8680   -1.7899    0.0000 O   0  0  0  0  0  0  0  0  0  0  0  0
   18.6422    7.3174    0.0000 O   0  0  0  0  0  0  0  0  0  0  0  0
   10.2641   -1.5820    0.0000 O   0  0  0  0  0  0  0  0  0  0  0  0
   14.7641    1.0161    0.0000 O   0  0  0  0  0  0  0  0  0  0  0  0
   10.2641   -3.3140    0.0000 O   0  0  0  0  0  0  0  0  0  0  0  0
   16.2641    0.1501    0.0000 O   0  0  0  0  0  0  0  0  0  0  0  0
    2.9340   -4.8140    0.0000 O   0  0  0  0  0  0  0  0  0  0  0  0
   22.9603    2.7481    0.0000 O   0  0  0  0  0  0  0  0  0  0  0  0
    2.9340   -6.8140    0.0000 O   0  0  0  0  0  0  0  0  0  0  0  0
   22.9603    4.7481    0.0000 O   0  0  0  0  0  0  0  0  0  0  0  0
    7.2641   -3.3140    0.0000 N   0  3  2  0  0  0  0  0  0  0  0  0
   17.7641    2.7481    0.0000 N   0  3  2  0  0  0  0  0  0  0  0  0
    6.3981   -3.8140    0.0000 C   0  0  1  0  0  0  0  0  0  0  0  0
   18.6301    3.2481    0.0000 C   0  0  1  0  0  0  0  0  0  0  0  0
    7.2641   -2.3140    0.0000 C   0  0  0  0  0  0  0  0  0  0  0  0
   16.8981    3.2481    0.0000 C   0  0  0  0  0  0  0  0  0  0  0  0
    8.2641   -3.3140    0.0000 C   0  0  0  0  0  0  0  0  0  0  0  0
   17.2641    1.8821    0.0000 C   0  0  0  0  0  0  0  0  0  0  0  0
    5.5320   -3.3140    0.0000 C   0  0  0  0  0  0  0  0  0  0  0  0
   18.6301    4.2481    0.0000 C   0  0  0  0  0  0  0  0  0  0  0  0
    6.3981   -1.8140    0.0000 C   0  0  0  0  0  0  0  0  0  0  0  0
   16.8981    4.2481    0.0000 C   0  0  0  0  0  0  0  0  0  0  0  0
    7.7641   -4.1801    0.0000 C   0  0  0  0  0  0  0  0  0  0  0  0
   18.2641    1.8821    0.0000 C   0  0  0  0  0  0  0  0  0  0  0  0
    6.3981   -4.8140    0.0000 C   0  0  0  0  0  0  0  0  0  0  0  0
   19.4961    2.7481    0.0000 C   0  0  0  0  0  0  0  0  0  0  0  0
    5.5320   -2.3140    0.0000 C   0  0  0  0  0  0  0  0  0  0  0  0
   17.7641    4.7481    0.0000 C   0  0  0  0  0  0  0  0  0  0  0  0
    8.7641   -2.4480    0.0000 C   0  0  0  0  0  0  0  0  0  0  0  0
   16.2641    1.8821    0.0000 C   0  0  0  0  0  0  0  0  0  0  0  0
    4.6381   -3.8487    0.0000 C   0  0  0  0  0  0  0  0  0  0  0  0
   19.5401    4.7550    0.0000 C   0  0  0  0  0  0  0  0  0  0  0  0
    5.5320   -5.3140    0.0000 C   0  0  0  0  0  0  0  0  0  0  0  0
   20.3622    3.2481    0.0000 C   0  0  0  0  0  0  0  0  0  0  0  0
    4.6381   -1.7794    0.0000 C   0  0  0  0  0  0  0  0  0  0  0  0
   17.7480    5.7896    0.0000 C   0  0  0  0  0  0  0  0  0  0  0  0
    3.7320   -3.3349    0.0000 C   0  0  0  0  0  0  0  0  0  0  0  0
   19.5482    5.7966    0.0000 C   0  0  0  0  0  0  0  0  0  0  0  0
    3.7320   -2.2932    0.0000 C   0  0  0  0  0  0  0  0  0  0  0  0
   18.6461    6.3174    0.0000 C   0  0  0  0  0  0  0  0  0  0  0  0
    9.7641   -2.4480    0.0000 C   0  0  0  0  0  0  0  0  0  0  0  0
   15.7641    1.0161    0.0000 C   0  0  0  0  0  0  0  0  0  0  0  0
    4.6660   -4.8140    0.0000 C   0  0  0  0  0  0  0  0  0  0  0  0
   21.2282    2.7481    0.0000 C   0  0  0  0  0  0  0  0  0  0  0  0
    5.5320   -6.3140    0.0000 C   0  0  0  0  0  0  0  0  0  0  0  0
   20.3622    4.2481    0.0000 C   0  0  0  0  0  0  0  0  0  0  0  0
    3.8000   -5.3140    0.0000 C   0  0  0  0  0  0  0  0  0  0  0  0
   22.0942    3.2481    0.0000 C   0  0  0  0  0  0  0  0  0  0  0  0
    4.6660   -6.8140    0.0000 C   0  0  0  0  0  0  0  0  0  0  0  0
   21.2282    4.7481    0.0000 C   0  0  0  0  0  0  0  0  0  0  0  0
    3.8000   -6.3140    0.0000 C   0  0  0  0  0  0  0  0  0  0  0  0
   22.0942    4.2481    0.0000 C   0  0  0  0  0  0  0  0  0  0  0  0
   11.2641   -1.5820    0.0000 C   0  0  0  0  0  0  0  0  0  0  0  0
   14.2641    0.1501    0.0000 C   0  0  0  0  0  0  0  0  0  0  0  0
   11.7641   -0.7160    0.0000 C   0  0  0  0  0  0  0  0  0  0  0  0
   13.2641    0.1501    0.0000 C   0  0  0  0  0  0  0  0  0  0  0  0
    2.0000   -3.3415    0.0000 C   0  0  0  0  0  0  0  0  0  0  0  0
   20.4200    7.2932    0.0000 C   0  0  0  0  0  0  0  0  0  0  0  0
   12.7641   -0.7160    0.0000 C   0  0  0  0  0  0  0  0  0  0  0  0
    2.8718   -0.7899    0.0000 C   0  0  0  0  0  0  0  0  0  0  0  0
   17.7743    7.8140    0.0000 C   0  0  0  0  0  0  0  0  0  0  0  0
    2.0680   -5.3140    0.0000 C   0  0  0  0  0  0  0  0  0  0  0  0
   22.9603    1.7481    0.0000 C   0  0  0  0  0  0  0  0  0  0  0  0
    2.9340   -7.8140    0.0000 C   0  0  0  0  0  0  0  0  0  0  0  0
   23.8263    4.2481    0.0000 C   0  0  0  0  0  0  0  0  0  0  0  0
    6.9350   -4.1240    0.0000 H   0  0  0  0  0  0  0  0  0  0  0  0
   18.6301    2.6281    0.0000 H   0  0  0  0  0  0  0  0  0  0  0  0
    7.8747   -2.4217    0.0000 H   0  0  0  0  0  0  0  0  0  0  0  0
    7.4762   -1.7314    0.0000 H   0  0  0  0  0  0  0  0  0  0  0  0
   16.2875    3.3558    0.0000 H   0  0  0  0  0  0  0  0  0  0  0  0
   16.6860    2.6655    0.0000 H   0  0  0  0  0  0  0  0  0  0  0  0
    8.1564   -3.9246    0.0000 H   0  0  0  0  0  0  0  0  0  0  0  0
    8.8467   -3.5261    0.0000 H   0  0  0  0  0  0  0  0  0  0  0  0
   17.1564    1.2715    0.0000 H   0  0  0  0  0  0  0  0  0  0  0  0
   17.8467    1.6701    0.0000 H   0  0  0  0  0  0  0  0  0  0  0  0
    6.7966   -1.3391    0.0000 H   0  0  0  0  0  0  0  0  0  0  0  0
    5.9995   -1.3391    0.0000 H   0  0  0  0  0  0  0  0  0  0  0  0
   16.6860    4.8307    0.0000 H   0  0  0  0  0  0  0  0  0  0  0  0
   16.2875    4.1405    0.0000 H   0  0  0  0  0  0  0  0  0  0  0  0
    7.2272   -4.4901    0.0000 H   0  0  0  0  0  0  0  0  0  0  0  0
    8.0741   -4.7170    0.0000 H   0  0  0  0  0  0  0  0  0  0  0  0
    8.3010   -3.8701    0.0000 H   0  0  0  0  0  0  0  0  0  0  0  0
   17.7272    1.5721    0.0000 H   0  0  0  0  0  0  0  0  0  0  0  0
   18.5741    1.3452    0.0000 H   0  0  0  0  0  0  0  0  0  0  0  0
   18.8010    2.1921    0.0000 H   0  0  0  0  0  0  0  0  0  0  0  0
    6.6101   -5.3966    0.0000 H   0  0  0  0  0  0  0  0  0  0  0  0
    7.0086   -4.7064    0.0000 H   0  0  0  0  0  0  0  0  0  0  0  0
   19.0976    2.2732    0.0000 H   0  0  0  0  0  0  0  0  0  0  0  0
   19.8947    2.2732    0.0000 H   0  0  0  0  0  0  0  0  0  0  0  0
    8.8718   -1.8374    0.0000 H   0  0  0  0  0  0  0  0  0  0  0  0
    8.1815   -2.2360    0.0000 H   0  0  0  0  0  0  0  0  0  0  0  0
   16.3718    2.4927    0.0000 H   0  0  0  0  0  0  0  0  0  0  0  0
   15.6815    2.0942    0.0000 H   0  0  0  0  0  0  0  0  0  0  0  0
    4.6453   -4.4687    0.0000 H   0  0  0  0  0  0  0  0  0  0  0  0
   20.0734    4.4388    0.0000 H   0  0  0  0  0  0  0  0  0  0  0  0
    4.6453   -1.1594    0.0000 H   0  0  0  0  0  0  0  0  0  0  0  0
   17.2076    6.0934    0.0000 H   0  0  0  0  0  0  0  0  0  0  0  0
    4.6660   -4.1940    0.0000 H   0  0  0  0  0  0  0  0  0  0  0  0
   21.2282    2.1281    0.0000 H   0  0  0  0  0  0  0  0  0  0  0  0
    6.0690   -6.6240    0.0000 H   0  0  0  0  0  0  0  0  0  0  0  0
   19.8252    4.5581    0.0000 H   0  0  0  0  0  0  0  0  0  0  0  0
    4.6660   -7.4340    0.0000 H   0  0  0  0  0  0  0  0  0  0  0  0
   21.2282    5.3681    0.0000 H   0  0  0  0  0  0  0  0  0  0  0  0
   11.1564   -2.1926    0.0000 H   0  0  0  0  0  0  0  0  0  0  0  0
   11.8467   -1.7940    0.0000 H   0  0  0  0  0  0  0  0  0  0  0  0
   14.1564   -0.4605    0.0000 H   0  0  0  0  0  0  0  0  0  0  0  0
   14.8467   -0.0620    0.0000 H   0  0  0  0  0  0  0  0  0  0  0  0
   11.8718   -0.1054    0.0000 H   0  0  0  0  0  0  0  0  0  0  0  0
   11.1815   -0.5039    0.0000 H   0  0  0  0  0  0  0  0  0  0  0  0
   13.3718    0.7606    0.0000 H   0  0  0  0  0  0  0  0  0  0  0  0
   12.6815    0.3621    0.0000 H   0  0  0  0  0  0  0  0  0  0  0  0
    2.3079   -2.8034    0.0000 H   0  0  0  0  0  0  0  0  0  0  0  0
    1.4619   -3.0336    0.0000 H   0  0  0  0  0  0  0  0  0  0  0  0
    1.6921   -3.8797    0.0000 H   0  0  0  0  0  0  0  0  0  0  0  0
   21.0399    7.2908    0.0000 H   0  0  0  0  0  0  0  0  0  0  0  0
   20.4223    7.9132    0.0000 H   0  0  0  0  0  0  0  0  0  0  0  0
   19.8000    7.2956    0.0000 H   0  0  0  0  0  0  0  0  0  0  0  0
   12.6564   -1.3265    0.0000 H   0  0  0  0  0  0  0  0  0  0  0  0
   13.3467   -0.9280    0.0000 H   0  0  0  0  0  0  0  0  0  0  0  0
    3.4918   -0.7923    0.0000 H   0  0  0  0  0  0  0  0  0  0  0  0
    2.8742   -0.1699    0.0000 H   0  0  0  0  0  0  0  0  0  0  0  0
    2.2518   -0.7875    0.0000 H   0  0  0  0  0  0  0  0  0  0  0  0
   18.0822    8.3522    0.0000 H   0  0  0  0  0  0  0  0  0  0  0  0
   17.2361    8.1220    0.0000 H   0  0  0  0  0  0  0  0  0  0  0  0
   17.4663    7.2759    0.0000 H   0  0  0  0  0  0  0  0  0  0  0  0
    1.7580   -4.7771    0.0000 H   0  0  0  0  0  0  0  0  0  0  0  0
    1.5310   -5.6240    0.0000 H   0  0  0  0  0  0  0  0  0  0  0  0
    2.3779   -5.8510    0.0000 H   0  0  0  0  0  0  0  0  0  0  0  0
   22.3403    1.7481    0.0000 H   0  0  0  0  0  0  0  0  0  0  0  0
   22.9603    1.1281    0.0000 H   0  0  0  0  0  0  0  0  0  0  0  0
   23.5803    1.7481    0.0000 H   0  0  0  0  0  0  0  0  0  0  0  0
    2.3140   -7.8140    0.0000 H   0  0  0  0  0  0  0  0  0  0  0  0
    2.9340   -8.4340    0.0000 H   0  0  0  0  0  0  0  0  0  0  0  0
    3.5540   -7.8140    0.0000 H   0  0  0  0  0  0  0  0  0  0  0  0
   23.5163    3.7112    0.0000 H   0  0  0  0  0  0  0  0  0  0  0  0
   24.3632    3.9381    0.0000 H   0  0  0  0  0  0  0  0  0  0  0  0
   24.1363    4.7851    0.0000 H   0  0  0  0  0  0  0  0  0  0  0  0
  1 39  1  0  0  0  0
  1 59  1  0  0  0  0
  2 40  1  0  0  0  0
  2 60  1  0  0  0  0
  3 41  1  0  0  0  0
  3 62  1  0  0  0  0
  4 42  1  0  0  0  0
  4 63  1  0  0  0  0
  5 43  1  0  0  0  0
  5 55  1  0  0  0  0
  6 44  1  0  0  0  0
  6 56  1  0  0  0  0
  7 43  2  0  0  0  0
  8 44  2  0  0  0  0
  9 49  1  0  0  0  0
  9 64  1  0  0  0  0
 10 50  1  0  0  0  0
 10 65  1  0  0  0  0
 11 53  1  0  0  0  0
 11 66  1  0  0  0  0
 12 54  1  0  0  0  0
 12 67  1  0  0  0  0
 13 15  1  0  0  0  0
 13 17  1  0  0  0  0
 13 19  1  0  0  0  0
 13 25  1  1  0  0  0
 14 16  1  0  0  0  0
 14 18  1  0  0  0  0
 14 20  1  0  0  0  0
 14 26  1  6  0  0  0
 15 21  1  0  0  0  0
 15 27  1  6  0  0  0
 15 68  1  0  0  0  0
 16 22  1  0  0  0  0
 16 28  1  1  0  0  0
 16 69  1  0  0  0  0
 17 23  1  0  0  0  0
 17 70  1  0  0  0  0
 17 71  1  0  0  0  0
 18 24  1  0  0  0  0
 18 72  1  0  0  0  0
 18 73  1  0  0  0  0
 19 31  1  0  0  0  0
 19 74  1  0  0  0  0
 19 75  1  0  0  0  0
 20 32  1  0  0  0  0
 20 76  1  0  0  0  0
 20 77  1  0  0  0  0
 21 29  1  0  0  0  0
 21 33  2  0  0  0  0
 22 30  1  0  0  0  0
 22 34  2  0  0  0  0
 23 29  1  0  0  0  0
 23 78  1  0  0  0  0
 23 79  1  0  0  0  0
 24 30  1  0  0  0  0
 24 80  1  0  0  0  0
 24 81  1  0  0  0  0
 25 82  1  0  0  0  0
 25 83  1  0  0  0  0
 25 84  1  0  0  0  0
 26 85  1  0  0  0  0
 26 86  1  0  0  0  0
 26 87  1  0  0  0  0
 27 35  1  0  0  0  0
 27 88  1  0  0  0  0
 27 89  1  0  0  0  0
 28 36  1  0  0  0  0
 28 90  1  0  0  0  0
 28 91  1  0  0  0  0
 29 37  2  0  0  0  0
 30 38  2  0  0  0  0
 31 43  1  0  0  0  0
 31 92  1  0  0  0  0
 31 93  1  0  0  0  0
 32 44  1  0  0  0  0
 32 94  1  0  0  0  0
 32 95  1  0  0  0  0
 33 39  1  0  0  0  0
 33 96  1  0  0  0  0
 34 40  1  0  0  0  0
 34 97  1  0  0  0  0
 35 45  2  0  0  0  0
 35 47  1  0  0  0  0
 36 46  2  0  0  0  0
 36 48  1  0  0  0  0
 37 41  1  0  0  0  0
 37 98  1  0  0  0  0
 38 42  1  0  0  0  0
 38 99  1  0  0  0  0
 39 41  2  0  0  0  0
 40 42  2  0  0  0  0
 45 49  1  0  0  0  0
 45100  1  0  0  0  0
 46 50  1  0  0  0  0
 46101  1  0  0  0  0
 47 51  2  0  0  0  0
 47102  1  0  0  0  0
 48 52  2  0  0  0  0
 48103  1  0  0  0  0
 49 53  2  0  0  0  0
 50 54  2  0  0  0  0
 51 53  1  0  0  0  0
 51104  1  0  0  0  0
 52 54  1  0  0  0  0
 52105  1  0  0  0  0
 55 57  1  0  0  0  0
 55106  1  0  0  0  0
 55107  1  0  0  0  0
 56 58  1  0  0  0  0
 56108  1  0  0  0  0
 56109  1  0  0  0  0
 57 61  1  0  0  0  0
 57110  1  0  0  0  0
 57111  1  0  0  0  0
 58 61  1  0  0  0  0
 58112  1  0  0  0  0
 58113  1  0  0  0  0
 59114  1  0  0  0  0
 59115  1  0  0  0  0
 59116  1  0  0  0  0
 60117  1  0  0  0  0
 60118  1  0  0  0  0
 60119  1  0  0  0  0
 61120  1  0  0  0  0
 61121  1  0  0  0  0
 62122  1  0  0  0  0
 62123  1  0  0  0  0
 62124  1  0  0  0  0
 63125  1  0  0  0  0
 63126  1  0  0  0  0
 63127  1  0  0  0  0
 64128  1  0  0  0  0
 64129  1  0  0  0  0
 64130  1  0  0  0  0
 65131  1  0  0  0  0
 65132  1  0  0  0  0
 65133  1  0  0  0  0
 66134  1  0  0  0  0
 66135  1  0  0  0  0
 66136  1  0  0  0  0
 67137  1  0  0  0  0
 67138  1  0  0  0  0
 67139  1  0  0  0  0
M  CHG  2  13   1  14   1
M  END
> <PUBCHEM_COMPOUND_CID>
62887

> <PUBCHEM_COMPOUND_CANONICALIZED>
1

> <PUBCHEM_CACTVS_COMPLEXITY>
1390

> <PUBCHEM_CACTVS_HBOND_ACCEPTOR>
12

> <PUBCHEM_CACTVS_HBOND_DONOR>
0

> <PUBCHEM_CACTVS_ROTATABLE_BOND>
26

> <PUBCHEM_CACTVS_SUBSKEYS>
AAADcfB/PAAAAAAAAAAAAAAAAAAAAAAAAAA8eMGCAAAAAACxVAAAHgAAAAAADCzhmAYyDoMABACIAiDSCACCCAAgIAAIiAEOjIgNJiqEsRuGMCpmwBGKqAew8PsOoAABAAAQQABAAAIAACCAAAAAAAAAAA==

> <PUBCHEM_IUPAC_OPENEYE_NAME>
5-[3-[(1R,2R)-1-[(3,4-dimethoxyphenyl)methyl]-6,7-dimethoxy-2-methyl-3,4-dihydro-1H-isoquinolin-2-ium-2-yl]propanoyloxy]pentyl 3-[(1R,2R)-1-[(3,4-dimethoxyphenyl)methyl]-6,7-dimethoxy-2-methyl-3,4-dihydro-1H-isoquinolin-2-ium-2-yl]propanoate

> <PUBCHEM_IUPAC_CAS_NAME>
3-[(1R,2R)-1-[(3,4-dimethoxyphenyl)methyl]-6,7-dimethoxy-2-methyl-3,4-dihydro-1H-isoquinolin-2-ium-2-yl]propanoic acid 5-[3-[(1R,2R)-1-[(3,4-dimethoxyphenyl)methyl]-6,7-dimethoxy-2-methyl-3,4-dihydro-1H-isoquinolin-2-ium-2-yl]-1-oxopropoxy]pentyl ester

> <PUBCHEM_IUPAC_NAME_MARKUP>
5-[3-[(1<I>R</I>,2<I>R</I>)-1-[(3,4-dimethoxyphenyl)methyl]-6,7-dimethoxy-2-methyl-3,4-dihydro-1<I>H</I>-isoquinolin-2-ium-2-yl]propanoyloxy]pentyl 3-[(1<I>R</I>,2<I>R</I>)-1-[(3,4-dimethoxyphenyl)methyl]-6,7-dimethoxy-2-methyl-3,4-dihydro-1<I>H</I>-isoquinolin-2-ium-2-yl]propanoate

> <PUBCHEM_IUPAC_NAME>
5-[3-[(1R,2R)-1-[(3,4-dimethoxyphenyl)methyl]-6,7-dimethoxy-2-methyl-3,4-dihydro-1H-isoquinolin-2-ium-2-yl]propanoyloxy]pentyl 3-[(1R,2R)-1-[(3,4-dimethoxyphenyl)methyl]-6,7-dimethoxy-2-methyl-3,4-dihydro-1H-isoquinolin-2-ium-2-yl]propanoate

> <PUBCHEM_IUPAC_SYSTEMATIC_NAME>
5-[3-[(1R,2R)-1-[(3,4-dimethoxyphenyl)methyl]-6,7-dimethoxy-2-methyl-3,4-dihydro-1H-isoquinolin-2-ium-2-yl]propanoyloxy]pentyl 3-[(1R,2R)-1-[(3,4-dimethoxyphenyl)methyl]-6,7-dimethoxy-2-methyl-3,4-dihydro-1H-isoquinolin-2-ium-2-yl]propanoate

> <PUBCHEM_IUPAC_TRADITIONAL_NAME>
3-[(1R,2R)-6,7-dimethoxy-2-methyl-1-veratryl-3,4-dihydro-1H-isoquinolin-2-ium-2-yl]propionic acid 5-[3-[(1R,2R)-6,7-dimethoxy-2-methyl-1-veratryl-3,4-dihydro-1H-isoquinolin-2-ium-2-yl]propanoyloxy]pentyl ester

> <PUBCHEM_IUPAC_INCHI>
InChI=1S/C53H72N2O12/c1-54(22-18-38-32-48(62-7)50(64-9)34-40(38)42(54)28-36-14-16-44(58-3)46(30-36)60-5)24-20-52(56)66-26-12-11-13-27-67-53(57)21-25-55(2)23-19-39-33-49(63-8)51(65-10)35-41(39)43(55)29-37-15-17-45(59-4)47(31-37)61-6/h14-17,30-35,42-43H,11-13,18-29H2,1-10H3/q+2/t42-,43-,54-,55-/m1/s1

> <PUBCHEM_IUPAC_INCHIKEY>
YXSLJKQTIDHPOT-LJCJQEJUSA-N

> <PUBCHEM_XLOGP3_AA>
7.9

> <PUBCHEM_EXACT_MASS>
928.50852574

> <PUBCHEM_MOLECULAR_FORMULA>
C53H72N2O12+2

> <PUBCHEM_MOLECULAR_WEIGHT>
929.1

> <PUBCHEM_OPENEYE_CAN_SMILES>
C[N+]1(CCC2=CC(=C(C=C2C1CC3=CC(=C(C=C3)OC)OC)OC)OC)CCC(=O)OCCCCCOC(=O)CC[N+]4(CCC5=CC(=C(C=C5C4CC6=CC(=C(C=C6)OC)OC)OC)OC)C

> <PUBCHEM_OPENEYE_ISO_SMILES>
C[N@@+]1(CCC2=CC(=C(C=C2[C@H]1CC3=CC(=C(C=C3)OC)OC)OC)OC)CCC(=O)OCCCCCOC(=O)CC[N@+]4(CCC5=CC(=C(C=C5[C@H]4CC6=CC(=C(C=C6)OC)OC)OC)OC)C

> <PUBCHEM_CACTVS_TPSA>
126

> <PUBCHEM_MONOISOTOPIC_WEIGHT>
928.50852574

> <PUBCHEM_TOTAL_CHARGE>
2

> <PUBCHEM_HEAVY_ATOM_COUNT>
67

> <PUBCHEM_ATOM_DEF_STEREO_COUNT>
4

> <PUBCHEM_ATOM_UDEF_STEREO_COUNT>
0

> <PUBCHEM_BOND_DEF_STEREO_COUNT>
0

> <PUBCHEM_BOND_UDEF_STEREO_COUNT>
0

> <PUBCHEM_ISOTOPIC_ATOM_COUNT>
0

> <PUBCHEM_COMPONENT_COUNT>
1

> <PUBCHEM_CACTVS_TAUTO_COUNT>
-1

> <PUBCHEM_COORDINATE_TYPE>
1
5
255

> <PUBCHEM_BONDANNOTATIONS>
13  25  5
14  26  6
15  27  6
16  28  5
21  29  8
21  33  8
22  30  8
22  34  8
29  37  8
30  38  8
33  39  8
34  40  8
35  45  8
35  47  8
36  46  8
36  48  8
37  41  8
38  42  8
39  41  8
40  42  8
45  49  8
46  50  8
47  51  8
48  52  8
49  53  8
50  54  8
51  53  8
52  54  8

$$$$
