9854489
  -OEChem-03252401462D

 66 70  0     1  0  0  0  0  0999 V2000
   10.0622    0.3638    0.0000 S   0  0  0  0  0  0  0  0  0  0  0  0
    5.0182   -0.3529    0.0000 F   0  0  0  0  0  0  0  0  0  0  0  0
    5.6489   -4.1882    0.0000 F   0  0  0  0  0  0  0  0  0  0  0  0
   11.7851    0.5419    0.0000 F   0  0  0  0  0  0  0  0  0  0  0  0
    8.0319    1.1374    0.0000 O   0  0  0  0  0  0  0  0  0  0  0  0
    4.7950    0.3810    0.0000 O   0  0  0  0  0  0  0  0  0  0  0  0
    9.5576    1.6850    0.0000 O   0  0  0  0  0  0  0  0  0  0  0  0
    9.1931    2.4225    0.0000 O   0  0  0  0  0  0  0  0  0  0  0  0
    2.0000   -3.1713    0.0000 O   0  0  0  0  0  0  0  0  0  0  0  0
    6.5210    2.5793    0.0000 O   0  0  0  0  0  0  0  0  0  0  0  0
    7.3931   -0.1190    0.0000 C   0  0  1  0  0  0  0  0  0  0  0  0
    7.3931   -1.1190    0.0000 C   0  0  2  0  0  0  0  0  0  0  0  0
    6.5271   -1.6190    0.0000 C   0  0  1  0  0  0  0  0  0  0  0  0
    5.6610   -1.1190    0.0000 C   0  0  1  0  0  0  0  0  0  0  0  0
    8.3393    0.1858    0.0000 C   0  0  1  0  0  0  0  0  0  0  0  0
    8.3393   -1.4237    0.0000 C   0  0  0  0  0  0  0  0  0  0  0  0
    6.5271    0.3810    0.0000 C   0  0  0  0  0  0  0  0  0  0  0  0
    8.9229   -0.6190    0.0000 C   0  0  1  0  0  0  0  0  0  0  0  0
    5.6610   -0.1190    0.0000 C   0  0  2  0  0  0  0  0  0  0  0  0
    4.7510   -1.6258    0.0000 C   0  0  1  0  0  0  0  0  0  0  0  0
    6.5431   -2.6605    0.0000 C   0  0  0  0  0  0  0  0  0  0  0  0
    7.3931    0.8810    0.0000 C   0  0  0  0  0  0  0  0  0  0  0  0
    5.6451   -3.1882    0.0000 C   0  0  1  0  0  0  0  0  0  0  0  0
    4.7430   -2.6674    0.0000 C   0  0  0  0  0  0  0  0  0  0  0  0
    9.9229   -0.6190    0.0000 C   0  0  0  0  0  0  0  0  0  0  0  0
    9.1493    0.7722    0.0000 C   0  0  0  0  0  0  0  0  0  0  0  0
    4.4163   -0.6835    0.0000 C   0  0  0  0  0  0  0  0  0  0  0  0
    3.8242   -1.0617    0.0000 C   0  0  0  0  0  0  0  0  0  0  0  0
    3.8076   -3.2171    0.0000 C   0  0  0  0  0  0  0  0  0  0  0  0
    2.8763   -1.5897    0.0000 C   0  0  0  0  0  0  0  0  0  0  0  0
    8.2415    2.1151    0.0000 C   0  0  0  0  0  0  0  0  0  0  0  0
    2.8680   -2.6746    0.0000 C   0  0  0  0  0  0  0  0  0  0  0  0
   10.8722    0.9502    0.0000 C   0  0  0  0  0  0  0  0  0  0  0  0
    7.4996    2.7856    0.0000 C   0  0  0  0  0  0  0  0  0  0  0  0
    7.6058    3.7799    0.0000 C   0  0  0  0  0  0  0  0  0  0  0  0
    6.6930    4.1882    0.0000 C   0  0  0  0  0  0  0  0  0  0  0  0
    6.0225    3.4462    0.0000 C   0  0  0  0  0  0  0  0  0  0  0  0
    7.4830   -1.9642    0.0000 H   0  0  0  0  0  0  0  0  0  0  0  0
    7.2664   -2.0383    0.0000 H   0  0  0  0  0  0  0  0  0  0  0  0
    8.0883   -1.9906    0.0000 H   0  0  0  0  0  0  0  0  0  0  0  0
    8.8767   -1.7329    0.0000 H   0  0  0  0  0  0  0  0  0  0  0  0
    6.9256    0.8560    0.0000 H   0  0  0  0  0  0  0  0  0  0  0  0
    6.1285    0.8560    0.0000 H   0  0  0  0  0  0  0  0  0  0  0  0
    9.2046   -0.0667    0.0000 H   0  0  0  0  0  0  0  0  0  0  0  0
    5.6610    0.5010    0.0000 H   0  0  0  0  0  0  0  0  0  0  0  0
    6.7612   -3.2409    0.0000 H   0  0  0  0  0  0  0  0  0  0  0  0
    7.1523   -2.5450    0.0000 H   0  0  0  0  0  0  0  0  0  0  0  0
    8.0131    0.8810    0.0000 H   0  0  0  0  0  0  0  0  0  0  0  0
    7.3931    1.5010    0.0000 H   0  0  0  0  0  0  0  0  0  0  0  0
    6.7731    0.8810    0.0000 H   0  0  0  0  0  0  0  0  0  0  0  0
    5.1087   -3.4993    0.0000 H   0  0  0  0  0  0  0  0  0  0  0  0
    9.9229   -1.2390    0.0000 H   0  0  0  0  0  0  0  0  0  0  0  0
   10.5429   -0.6190    0.0000 H   0  0  0  0  0  0  0  0  0  0  0  0
    9.9229    0.0010    0.0000 H   0  0  0  0  0  0  0  0  0  0  0  0
    5.0005   -0.4760    0.0000 H   0  0  0  0  0  0  0  0  0  0  0  0
    4.2087   -0.0993    0.0000 H   0  0  0  0  0  0  0  0  0  0  0  0
    3.8320   -0.8911    0.0000 H   0  0  0  0  0  0  0  0  0  0  0  0
    3.8361   -0.4418    0.0000 H   0  0  0  0  0  0  0  0  0  0  0  0
    4.7950    1.0010    0.0000 H   0  0  0  0  0  0  0  0  0  0  0  0
    3.8100   -3.8371    0.0000 H   0  0  0  0  0  0  0  0  0  0  0  0
    2.3430   -1.2735    0.0000 H   0  0  0  0  0  0  0  0  0  0  0  0
   11.2198    1.4636    0.0000 H   0  0  0  0  0  0  0  0  0  0  0  0
   10.4270    1.3817    0.0000 H   0  0  0  0  0  0  0  0  0  0  0  0
    8.1433    4.0890    0.0000 H   0  0  0  0  0  0  0  0  0  0  0  0
    6.5651    4.7949    0.0000 H   0  0  0  0  0  0  0  0  0  0  0  0
    5.4060    3.5121    0.0000 H   0  0  0  0  0  0  0  0  0  0  0  0
  1 26  1  0  0  0  0
  1 33  1  0  0  0  0
 14  2  1  6  0  0  0
 23  3  1  6  0  0  0
  4 33  1  0  0  0  0
 15  5  1  6  0  0  0
  5 31  1  0  0  0  0
 19  6  1  1  0  0  0
  6 59  1  0  0  0  0
  7 26  2  0  0  0  0
  8 31  2  0  0  0  0
  9 32  2  0  0  0  0
 10 34  1  0  0  0  0
 10 37  1  0  0  0  0
 11 12  1  0  0  0  0
 11 15  1  0  0  0  0
 11 17  1  0  0  0  0
 11 22  1  1  0  0  0
 12 13  1  0  0  0  0
 12 16  1  0  0  0  0
 12 38  1  6  0  0  0
 13 14  1  0  0  0  0
 13 21  1  0  0  0  0
 13 39  1  1  0  0  0
 14 19  1  0  0  0  0
 14 20  1  0  0  0  0
 15 18  1  0  0  0  0
 15 26  1  0  0  0  0
 16 18  1  0  0  0  0
 16 40  1  0  0  0  0
 16 41  1  0  0  0  0
 17 19  1  0  0  0  0
 17 42  1  0  0  0  0
 17 43  1  0  0  0  0
 18 25  1  6  0  0  0
 18 44  1  0  0  0  0
 19 45  1  0  0  0  0
 20 24  1  0  0  0  0
 20 27  1  1  0  0  0
 20 28  1  0  0  0  0
 21 23  1  0  0  0  0
 21 46  1  0  0  0  0
 21 47  1  0  0  0  0
 22 48  1  0  0  0  0
 22 49  1  0  0  0  0
 22 50  1  0  0  0  0
 23 24  1  0  0  0  0
 23 51  1  0  0  0  0
 24 29  2  0  0  0  0
 25 52  1  0  0  0  0
 25 53  1  0  0  0  0
 25 54  1  0  0  0  0
 27 55  1  0  0  0  0
 27 56  1  0  0  0  0
 27 57  1  0  0  0  0
 28 30  2  0  0  0  0
 28 58  1  0  0  0  0
 29 32  1  0  0  0  0
 29 60  1  0  0  0  0
 30 32  1  0  0  0  0
 30 61  1  0  0  0  0
 31 34  1  0  0  0  0
 33 62  1  0  0  0  0
 33 63  1  0  0  0  0
 34 35  2  0  0  0  0
 35 36  1  0  0  0  0
 35 64  1  0  0  0  0
 36 37  2  0  0  0  0
 36 65  1  0  0  0  0
 37 66  1  0  0  0  0
M  END
> <PUBCHEM_COMPOUND_CID>
9854489

> <PUBCHEM_COMPOUND_CANONICALIZED>
1

> <PUBCHEM_CACTVS_COMPLEXITY>
1080

> <PUBCHEM_CACTVS_HBOND_ACCEPTOR>
10

> <PUBCHEM_CACTVS_HBOND_DONOR>
1

> <PUBCHEM_CACTVS_ROTATABLE_BOND>
6

> <PUBCHEM_CACTVS_SUBSKEYS>
AAADceB4OYBAAAAAAAAAAAAAAAAAAaIAAAAwYIAAAAAAAGDBgAAAGwQACAAAD1Sg0AKyDIAABkiIAqjSiAICCAAkIBAIiAFGCMgNNjKkNR6CWSCkwBEKqYfI7vjPgAAAAAAAAADAAAYAADAAAYAADAAAAA==

> <PUBCHEM_IUPAC_OPENEYE_NAME>
[(6S,8S,9R,10S,11S,13S,14S,16R,17R)-6,9-difluoro-17-(fluoromethylsulfanylcarbonyl)-11-hydroxy-10,13,16-trimethyl-3-oxo-6,7,8,11,12,14,15,16-octahydrocyclopenta[a]phenanthren-17-yl] furan-2-carboxylate

> <PUBCHEM_IUPAC_CAS_NAME>
2-furancarboxylic acid [(6S,8S,9R,10S,11S,13S,14S,16R,17R)-6,9-difluoro-17-[(fluoromethylthio)-oxomethyl]-11-hydroxy-10,13,16-trimethyl-3-oxo-6,7,8,11,12,14,15,16-octahydrocyclopenta[a]phenanthren-17-yl] ester

> <PUBCHEM_IUPAC_NAME_MARKUP>
[(6<I>S</I>,8<I>S</I>,9<I>R</I>,10<I>S</I>,11<I>S</I>,13<I>S</I>,14<I>S</I>,16<I>R</I>,17<I>R</I>)-6,9-difluoro-17-(fluoromethylsulfanylcarbonyl)-11-hydroxy-10,13,16-trimethyl-3-oxo-6,7,8,11,12,14,15,16-octahydrocyclopenta[a]phenanthren-17-yl] furan-2-carboxylate

> <PUBCHEM_IUPAC_NAME>
[(6S,8S,9R,10S,11S,13S,14S,16R,17R)-6,9-difluoro-17-(fluoromethylsulfanylcarbonyl)-11-hydroxy-10,13,16-trimethyl-3-oxo-6,7,8,11,12,14,15,16-octahydrocyclopenta[a]phenanthren-17-yl] furan-2-carboxylate

> <PUBCHEM_IUPAC_SYSTEMATIC_NAME>
[(6S,8S,9R,10S,11S,13S,14S,16R,17R)-6,9-bis(fluoranyl)-17-(fluoranylmethylsulfanylcarbonyl)-10,13,16-trimethyl-11-oxidanyl-3-oxidanylidene-6,7,8,11,12,14,15,16-octahydrocyclopenta[a]phenanthren-17-yl] furan-2-carboxylate

> <PUBCHEM_IUPAC_TRADITIONAL_NAME>
furan-2-carboxylic acid [(6S,8S,9R,10S,11S,13S,14S,16R,17R)-6,9-difluoro-17-(fluoromethylthio)carbonyl-11-hydroxy-3-keto-10,13,16-trimethyl-6,7,8,11,12,14,15,16-octahydrocyclopenta[a]phenanthren-17-yl] ester

> <PUBCHEM_IUPAC_INCHI>
InChI=1S/C27H29F3O6S/c1-14-9-16-17-11-19(29)18-10-15(31)6-7-24(18,2)26(17,30)21(32)12-25(16,3)27(14,23(34)37-13-28)36-22(33)20-5-4-8-35-20/h4-8,10,14,16-17,19,21,32H,9,11-13H2,1-3H3/t14-,16+,17+,19+,21+,24+,25+,26+,27+/m1/s1

> <PUBCHEM_IUPAC_INCHIKEY>
XTULMSXFIHGYFS-VLSRWLAYSA-N

> <PUBCHEM_XLOGP3>
4.8

> <PUBCHEM_EXACT_MASS>
538.16369430

> <PUBCHEM_MOLECULAR_FORMULA>
C27H29F3O6S

> <PUBCHEM_MOLECULAR_WEIGHT>
538.6

> <PUBCHEM_OPENEYE_CAN_SMILES>
CC1CC2C3CC(C4=CC(=O)C=CC4(C3(C(CC2(C1(C(=O)SCF)OC(=O)C5=CC=CO5)C)O)F)C)F

> <PUBCHEM_OPENEYE_ISO_SMILES>
C[C@@H]1C[C@H]2[C@@H]3C[C@@H](C4=CC(=O)C=C[C@@]4([C@]3([C@H](C[C@@]2([C@]1(C(=O)SCF)OC(=O)C5=CC=CO5)C)O)F)C)F

> <PUBCHEM_CACTVS_TPSA>
119

> <PUBCHEM_MONOISOTOPIC_WEIGHT>
538.16369430

> <PUBCHEM_TOTAL_CHARGE>
0

> <PUBCHEM_HEAVY_ATOM_COUNT>
37

> <PUBCHEM_ATOM_DEF_STEREO_COUNT>
9

> <PUBCHEM_ATOM_UDEF_STEREO_COUNT>
0

> <PUBCHEM_BOND_DEF_STEREO_COUNT>
0

> <PUBCHEM_BOND_UDEF_STEREO_COUNT>
0

> <PUBCHEM_ISOTOPIC_ATOM_COUNT>
0

> <PUBCHEM_COMPONENT_COUNT>
1

> <PUBCHEM_CACTVS_TAUTO_COUNT>
-1

> <PUBCHEM_COORDINATE_TYPE>
1
5
255

> <PUBCHEM_BONDANNOTATIONS>
10  34  8
10  37  8
11  22  5
12  38  6
13  39  5
18  25  6
14  2  6
20  27  5
23  3  6
34  35  8
35  36  8
36  37  8
15  5  6
19  6  5

$$$$
